   2.00000000       0.00000000    
   2.00099993       0.00000000    
   2.00200009       0.00000000    
   2.00300002       0.00000000    
   2.00399995       0.00000000    
   2.00500011       0.00000000    
   2.00600004       0.00000000    
   2.00699997       0.00000000    
   2.00799990       0.00000000    
   2.00900006       0.00000000    
   2.00999999       0.00000000    
   2.01099992      -1.54142831E-44
   2.01200008       3.18010673E-41
   2.01300001      -4.19002254E-41
   2.01399994      -5.02953624E-39
   2.01500010      -4.77170097E-38
   2.01600003      -2.34913562E-37
   2.01699996      -7.18821495E-37
   2.01799989      -1.40634933E-36
   2.01900005      -1.76231940E-36
   2.01999998      -2.64134886E-36
   2.02099991      -1.20893711E-35
   2.02200007      -4.90737954E-35
   2.02300000      -1.22749356E-34
   2.02399993      -1.63092770E-34
   2.02500010       6.86052769E-35
   2.02600002       9.57525188E-34
   2.02699995       2.73263021E-33
   2.02800012       4.92188705E-33
   2.02900004       6.04664743E-33
   2.02999997       4.27887437E-33
   2.03099990      -8.65298473E-34
   2.03200006      -7.44264248E-33
   2.03299999      -1.38420881E-32
   2.03399992      -2.75739060E-32
   2.03500009      -7.66379176E-32
   2.03600001      -2.11226249E-31
   2.03699994      -4.78044494E-31
   2.03800011      -8.56591197E-31
   2.03900003      -1.17151460E-30
   2.03999996      -1.03125555E-30
   2.04099989       1.29476683E-31
   2.04200006       2.83331190E-30
   2.04299998       7.15919017E-30
   2.04399991       1.22519884E-29
   2.04500008       1.59589025E-29
   2.04600000       1.48921525E-29
   2.04699993       5.20416439E-30
   2.04800010      -1.57984078E-29
   2.04900002      -4.73976565E-29
   2.04999995      -8.31977602E-29
   2.05100012      -1.09903902E-28
   2.05200005      -1.08404831E-28
   2.05299997      -5.81856899E-29
   2.05399990       5.46969280E-29
   2.05500007       2.27161030E-28
   2.05599999       4.28842247E-28
   2.05699992       5.96184951E-28
   2.05800009       6.35893293E-28
   2.05900002       4.42413119E-28
   2.05999994      -6.81202926E-29
   2.06100011      -9.09832032E-28
   2.06200004      -1.97480600E-27
   2.06299996      -2.99535416E-27
   2.06399989      -3.54682379E-27
   2.06500006      -3.11698473E-27
   2.06599998      -1.25545460E-27
   2.06699991       2.21129152E-27
   2.06800008       6.95310168E-27
   2.06900001       1.19891304E-26
   2.06999993       1.57282764E-26
   2.07100010       1.62780092E-26
   2.07200003       1.20223688E-26
   2.07299995       2.34745862E-27
   2.07399988      -1.17330842E-26
   2.07500005      -2.73698280E-26
   2.07599998      -4.03556433E-26
   2.07699990      -4.63618669E-26
   2.07800007      -4.26829586E-26
   2.07900000      -2.98908179E-26
   2.07999992      -1.25732025E-26
   2.08100009       1.61625293E-27
   2.08200002       4.93806704E-27
   2.08299994      -5.86182124E-27
   2.08400011      -2.47731506E-26
   2.08500004      -3.37000177E-26
   2.08599997      -3.99207991E-27
   2.08699989       9.59268851E-26
   2.08800006       2.86743149E-25
   2.08899999       5.60625104E-25
   2.08999991       8.64869330E-25
   2.09100008       1.09397978E-24
   2.09200001       1.09773989E-24
   2.09299994       7.10671477E-25
   2.09400010      -1.96839815E-25
   2.09500003      -1.65305073E-24
   2.09599996      -3.52074302E-24
   2.09699988      -5.45692480E-24
   2.09800005      -6.92057338E-24
   2.09899998      -7.24673581E-24
   2.09999990      -5.79061218E-24
   2.10100007      -2.12342206E-24
   2.10200000       3.76201613E-24
   2.10299993       1.12961411E-23
   2.10400009       1.92916439E-23
   2.10500002       2.60629341E-23
   2.10599995       2.97134747E-23
   2.10700011       2.85454304E-23
   2.10800004       2.14948393E-23
   2.10899997       8.46625718E-24
   2.10999990      -9.54854831E-24
   2.11100006      -3.06255367E-23
   2.11199999      -5.23003168E-23
   2.11299992      -7.20589601E-23
   2.11400008      -8.77232512E-23
   2.11500001      -9.75357910E-23
   2.11599994      -9.98561275E-23
   2.11700010      -9.25650711E-23
   2.11800003      -7.24820735E-23
   2.11899996      -3.52408589E-23
   2.11999989       2.39480958E-23
   2.12100005       1.08445592E-22
   2.12199998       2.17451894E-22
   2.12299991       3.43091890E-22
   2.12400007       4.68397181E-22
   2.12500000       5.67345885E-22
   2.12599993       6.07778377E-22
   2.12700009       5.57239782E-22
   2.12800002       3.90802904E-22
   2.12899995       9.90105002E-23
   2.13000011      -3.06369518E-22
   2.13100004      -7.90790825E-22
   2.13199997      -1.30050917E-21
   2.13299990      -1.77061039E-21
   2.13400006      -2.13517369E-21
   2.13499999      -2.33625370E-21
   2.13599992      -2.32853120E-21
   2.13700008      -2.07796615E-21
   2.13800001      -1.55531877E-21
   2.13899994      -7.28171274E-22
   2.14000010       4.42898218E-22
   2.14100003       1.99807759E-21
   2.14199996       3.95806933E-21
   2.14299989       6.28993065E-21
   2.14400005       8.86435502E-21
   2.14499998       1.14147774E-20
   2.14599991       1.35119816E-20
   2.14700007       1.45683292E-20
   2.14800000       1.38827451E-20
   2.14899993       1.07316022E-20
   2.15000010       4.50262478E-21
   2.15100002      -5.13982689E-21
   2.15199995      -1.80778530E-20
   2.15300012      -3.35779042E-20
   2.15400004      -5.01743817E-20
   2.15499997      -6.56318508E-20
   2.15599990      -7.70177722E-20
   2.15700006      -8.09126879E-20
   2.15799999      -7.37745069E-20
   2.15899992      -5.24571643E-20
   2.16000009      -1.48604290E-20
   2.16100001       3.93416599E-20
   2.16199994       1.07978050E-19
   2.16300011       1.85777657E-19
   2.16400003       2.64020464E-19
   2.16499996       3.30581543E-19
   2.16599989       3.70489647E-19
   2.16700006       3.67079983E-19
   2.16799998       3.03754861E-19
   2.16899991       1.66281850E-19
   2.17000008      -5.45365994E-20
   2.17100000      -3.60082215E-19
   2.17199993      -7.41369361E-19
   2.17300010      -1.17711834E-18
   2.17400002      -1.63286435E-18
   2.17499995      -2.06147740E-18
   2.17600012      -2.40537856E-18
   2.17700005      -2.60058264E-18
   2.17799997      -2.58248620E-18
   2.17899990      -2.29307204E-18
   2.18000007      -1.68892559E-18
   2.18099999      -7.49214807E-19
   2.18199992       5.17389272E-19
   2.18300009       2.06793768E-18
   2.18400002       3.82356090E-18
   2.18499994       5.67166934E-18
   2.18600011       7.47227072E-18
   2.18700004       9.06812711E-18
   2.18799996       1.02978717E-17
   2.18899989       1.10107045E-17
   2.19000006       1.10809156E-17
   2.19099998       1.04203962E-17
   2.19199991       8.98752250E-18
   2.19300008       6.79130172E-18
   2.19400001       3.89040661E-18
   2.19499993       3.87578242E-19
   2.19600010      -3.57932053E-18
   2.19700003      -7.84776108E-18
   2.19799995      -1.22404078E-17
   2.19899988      -1.65725206E-17
   2.20000005      -2.06556512E-17
   2.20099998      -2.42974131E-17
   2.20199990      -2.72982589E-17
   2.20300007      -2.94473585E-17
   2.20400000      -3.05204235E-17
   2.20499992      -3.02826455E-17
   2.20600009      -2.84993665E-17
   2.20700002      -2.49559779E-17
   2.20799994      -1.94867192E-17
   2.20900011      -1.20098337E-17
   2.21000004      -2.56460359E-18
   2.21099997       8.65583631E-18
   2.21199989       2.12825813E-17
   2.21300006       3.47659975E-17
   2.21399999       4.83918989E-17
   2.21499991       6.13201429E-17
   2.21600008       7.26433323E-17
   2.21700001       8.14597475E-17
   2.21799994       8.69518628E-17
   2.21900010       8.84598594E-17
   2.22000003       8.55401699E-17
   2.22099996       7.80004451E-17
   2.22199988       6.59063035E-17
   2.22300005       4.95595834E-17
   2.22399998       2.94528245E-17
   2.22499990       6.20877591E-18
   2.22600007      -1.94832351E-17
   2.22700000      -4.69218566E-17
   2.22799993      -7.54285420E-17
   2.22900009      -1.04356008E-16
   2.23000002      -1.33069180E-16
   2.23099995      -1.60903411E-16
   2.23200011      -1.87110531E-16
   2.23300004      -2.10806317E-16
   2.23399997      -2.30934586E-16
   2.23499990      -2.46260483E-16
   2.23600006      -2.55400868E-16
   2.23699999      -2.56893023E-16
   2.23799992      -2.49295296E-16
   2.23900008      -2.31307837E-16
   2.24000001      -2.01896470E-16
   2.24099994      -1.60403900E-16
   2.24200010      -1.06634473E-16
   2.24300003      -4.09053485E-17
   2.24399996       3.59355349E-17
   2.24499989       1.22517148E-16
   2.24600005       2.16966139E-16
   2.24699998       3.16927065E-16
   2.24799991       4.19571629E-16
   2.24900007       5.21593836E-16
   2.25000000       6.19198396E-16
   2.25099993       7.08100168E-16
   2.25200009       7.83559845E-16
   2.25300002       8.40486071E-16
   2.25399995       8.73628723E-16
   2.25500011       8.77878605E-16
   2.25600004       8.48670633E-16
   2.25699997       7.82465479E-16
   2.25799990       6.77262398E-16
   2.25900006       5.33077009E-16
   2.25999999       3.52306467E-16
   2.26099992       1.39906007E-16
   2.26200008      -9.66854691E-17
   2.26300001      -3.47904966E-16
   2.26399994      -6.02705605E-16
   2.26500010      -8.49428780E-16
   2.26600003      -1.07681477E-15
   2.26699996      -1.27502567E-15
   2.26799989      -1.43653389E-15
   2.26900005      -1.55673231E-15
   2.26999998      -1.63415240E-15
   2.27099991      -1.67022287E-15
   2.27200007      -1.66857169E-15
   2.27300000      -1.63395239E-15
   2.27399993      -1.57094182E-15
   2.27500010      -1.48261926E-15
   2.27600002      -1.36945587E-15
   2.27699995      -1.22864204E-15
   2.27800012      -1.05402842E-15
   2.27900004      -8.36774743E-16
   2.27999997      -5.66699823E-16
   2.28099990      -2.34205642E-16
   2.28200006       1.67452167E-16
   2.28299999       6.39858535E-16
   2.28399992       1.17744684E-15
   2.28500009       1.76616206E-15
   2.28600001       2.38305901E-15
   2.28699994       2.99701115E-15
   2.28800011       3.57056744E-15
   2.28900003       4.06283546E-15
   2.28999996       4.43312481E-15
   2.29099989       4.64495335E-15
   2.29200006       4.66994336E-15
   2.29299998       4.49109489E-15
   2.29399991       4.10498805E-15
   2.29500008       3.52254808E-15
   2.29600000       2.76818160E-15
   2.29699993       1.87729119E-15
   2.29800010       8.92399079E-16
   2.29900002      -1.41686827E-16
   2.29999995      -1.18305441E-15
   2.30100012      -2.19750776E-15
   2.30200005      -3.16230074E-15
   2.30299997      -4.06814382E-15
   2.30399990      -4.91903203E-15
   2.30500007      -5.72971329E-15
   2.30599999      -6.52093905E-15
   2.30699992      -7.31300040E-15
   2.30800009      -8.11835425E-15
   2.30900002      -8.93437647E-15
   2.30999994      -9.73741876E-15
   2.31100011      -1.04792587E-14
   2.31200004      -1.10868524E-14
   2.31299996      -1.14659242E-14
   2.31399989      -1.15084300E-14
   2.31500006      -1.11034178E-14
   2.31599998      -1.01502287E-14
   2.31699991      -8.57259515E-15
   2.31800008      -6.33186944E-15
   2.31900001      -3.43758475E-15
   2.31999993       4.62821846E-17
   2.32100010       4.00056202E-15
   2.32200003       8.25625291E-15
   2.32299995       1.26058611E-14
   2.32399988       1.68198161E-14
   2.32500005       2.06663605E-14
   2.32599998       2.39328007E-14
   2.32699990       2.64456866E-14
   2.32800007       2.80875177E-14
   2.32900000       2.88079124E-14
   2.32999992       2.86277045E-14
   2.33100009       2.76353139E-14
   2.33200002       2.59755579E-14
   2.33299994       2.38320462E-14
   2.33400011       2.14050562E-14
   2.33500004       1.88872897E-14
   2.33599997       1.64402556E-14
   2.33699989       1.41738682E-14
   2.33800006       1.21315176E-14
   2.33899999       1.02822024E-14
   2.33999991       8.52056446E-15
   2.34100008       6.67477463E-15
   2.34200001       4.52152116E-15
   2.34299994       1.80672848E-15
   2.34400010      -1.72973413E-15
   2.34500003      -6.32719424E-15
   2.34599996      -1.21769584E-14
   2.34699988      -1.93963091E-14
   2.34800005      -2.80049608E-14
   2.34899998      -3.79050700E-14
   2.34999990      -4.88656323E-14
   2.35100007      -6.05122709E-14
   2.35200000      -7.23233729E-14
   2.35299993      -8.36340545E-14
   2.35400009      -9.36492230E-14
   2.35500002      -1.01467588E-13
   2.35599995      -1.06117799E-13
   2.35700011      -1.06607960E-13
   2.35800004      -1.01988669E-13
   2.35899997      -9.14285601E-14
   2.35999990      -7.43001851E-14
   2.36100006      -5.02724117E-14
   2.36199999      -1.94043254E-14
   2.36299992       1.77652489E-14
   2.36400008       6.01393799E-14
   2.36500001       1.06001870E-13
   2.36599994       1.52979165E-13
   2.36700010       1.98030096E-13
   2.36800003       2.37465267E-13
   2.36899996       2.66997145E-13
   2.36999989       2.81816616E-13
   2.37100005       2.76693246E-13
   2.37199998       2.46089526E-13
   2.37299991       1.84281315E-13
   2.37400007       8.54736746E-14
   2.37500000      -5.60976402E-14
   2.37599993      -2.46089228E-13
   2.37700009      -4.90004304E-13
   2.37800002      -7.93182740E-13
   2.37899995      -1.16082892E-12
   2.38000011      -1.59807367E-12
   2.38100004      -2.11006191E-12
   2.38199997      -2.70205885E-12
   2.38299990      -3.37955857E-12
   2.38400006      -4.14838259E-12
   2.38499999      -5.01475554E-12
   2.38599992      -5.98533896E-12
   2.38700008      -7.06722701E-12
   2.38800001      -8.26788464E-12
   2.38899994      -9.59504351E-12
   2.39000010      -1.10565524E-11
   2.39100003      -1.26602045E-11
   2.39199996      -1.44135554E-11
   2.39299989      -1.63237531E-11
   2.39400005      -1.83974034E-11
   2.39499998      -2.06404824E-11
   2.39599991      -2.30583330E-11
   2.39700007      -2.56557223E-11
   2.39800000      -2.84369802E-11
   2.39899993      -3.14062040E-11
   2.40000010      -3.45675051E-11
   2.40100002      -3.79252775E-11
   2.40199995      -4.14844582E-11
   2.40300012      -4.52507372E-11
   2.40400004      -4.92306959E-11
   2.40499997      -5.34318388E-11
   2.40599990      -5.78625758E-11
   2.40700006      -6.25320143E-11
   2.40799999      -6.74497888E-11
   2.40899992      -7.26256902E-11
   2.41000009      -7.80693982E-11
   2.41100001      -8.37901415E-11
   2.41199994      -8.97964827E-11
   2.41300011      -9.60961588E-11
   2.41400003      -1.02696067E-10
   2.41499996      -1.09602348E-10
   2.41599989      -1.16820636E-10
   2.41700006      -1.24356386E-10
   2.41799998      -1.32215183E-10
   2.41899991      -1.40403231E-10
   2.42000008      -1.48927662E-10
   2.42100000      -1.57796776E-10
   2.42199993      -1.67020203E-10
   2.42300010      -1.76608936E-10
   2.42400002      -1.86575075E-10
   2.42499995      -1.96931596E-10
   2.42600012      -2.07691933E-10
   2.42700005      -2.18869464E-10
   2.42799997      -2.30477179E-10
   2.42899990      -2.42527110E-10
   2.43000007      -2.55030275E-10
   2.43099999      -2.67996292E-10
   2.43199992      -2.81433654E-10
   2.43300009      -2.95349772E-10
   2.43400002      -3.09751419E-10
   2.43499994      -3.24645200E-10
   2.43600011      -3.40038192E-10
   2.43700004      -3.55938307E-10
   2.43799996      -3.72354869E-10
   2.43899989      -3.89298954E-10
   2.44000006      -4.06783468E-10
   2.44099998      -4.24823066E-10
   2.44199991      -4.43433901E-10
   2.44300008      -4.62633210E-10
   2.44400001      -4.82438700E-10
   2.44499993      -5.02867858E-10
   2.44600010      -5.23937449E-10
   2.44700003      -5.45662793E-10
   2.44799995      -5.68057490E-10
   2.44899988      -5.91133309E-10
   2.45000005      -6.14900075E-10
   2.45099998      -6.39366171E-10
   2.45199990      -6.64538868E-10
   2.45300007      -6.90425106E-10
   2.45400000      -7.17032156E-10
   2.45499992      -7.44368789E-10
   2.45600009      -7.72445607E-10
   2.45700002      -8.01275823E-10
   2.45799994      -8.30875591E-10
   2.45900011      -8.61263894E-10
   2.46000004      -8.92462715E-10
   2.46099997      -9.24496257E-10
   2.46199989      -9.57390500E-10
   2.46300006      -9.91172477E-10
   2.46399999      -1.02586961E-09
   2.46499991      -1.06150888E-09
   2.46600008      -1.09811638E-09
   2.46700001      -1.13571696E-09
   2.46799994      -1.17433396E-09
   2.46900010      -1.21398946E-09
   2.47000003      -1.25470490E-09
   2.47099996      -1.29650135E-09
   2.47199988      -1.33940048E-09
   2.47300005      -1.38342549E-09
   2.47399998      -1.42860135E-09
   2.47499990      -1.47495605E-09
   2.47600007      -1.52252000E-09
   2.47700000      -1.57132707E-09
   2.47799993      -1.62141356E-09
   2.47900009      -1.67281800E-09
   2.48000002      -1.72558057E-09
   2.48099995      -1.77974224E-09
   2.48200011      -1.83534343E-09
   2.48300004      -1.89242355E-09
   2.48399997      -1.95102046E-09
   2.48499990      -2.01116901E-09
   2.48600006      -2.07290141E-09
   2.48699999      -2.13624674E-09
   2.48799992      -2.20123209E-09
   2.48900008      -2.26788255E-09
   2.49000001      -2.33622099E-09
   2.49099994      -2.40627163E-09
   2.49200010      -2.47805754E-09
   2.49300003      -2.55160382E-09
   2.49399996      -2.62693756E-09
   2.49499989      -2.70408829E-09
   2.49600005      -2.78308887E-09
   2.49699998      -2.86397506E-09
   2.49799991      -2.94678526E-09
   2.49900007      -3.03156145E-09
   2.50000000      -3.11834736E-09
   2.50099993      -3.20718918E-09
   2.50200009      -3.29813399E-09
   2.50300002      -3.39122930E-09
   2.50399995      -3.48652285E-09
   2.50500011      -3.58406149E-09
   2.50600004      -3.68389119E-09
   2.50699997      -3.78605680E-09
   2.50799990      -3.89060117E-09
   2.50900006      -3.99756805E-09
   2.50999999      -4.10699741E-09
   2.51099992      -4.21893143E-09
   2.51200008      -4.33341052E-09
   2.51300001      -4.45047821E-09
   2.51399994      -4.57017890E-09
   2.51500010      -4.69256012E-09
   2.51600003      -4.81767337E-09
   2.51699996      -4.94557462E-09
   2.51799989      -5.07632469E-09
   2.51900005      -5.20998755E-09
   2.51999998      -5.34663336E-09
   2.52099991      -5.48633494E-09
   2.52200007      -5.62916735E-09
   2.52300000      -5.77520787E-09
   2.52399993      -5.92453464E-09
   2.52500010      -6.07722539E-09
   2.52600002      -6.23335605E-09
   2.52699995      -6.39300124E-09
   2.52800012      -6.55623422E-09
   2.52900004      -6.72312561E-09
   2.52999997      -6.89374602E-09
   2.53099990      -7.06816650E-09
   2.53200006      -7.24645988E-09
   2.53299999      -7.42870165E-09
   2.53399992      -7.61496999E-09
   2.53500009      -7.80534837E-09
   2.53600001      -7.99992428E-09
   2.53699994      -8.19879187E-09
   2.53800011      -8.40204439E-09
   2.53900003      -8.60978311E-09
   2.53999996      -8.82210660E-09
   2.54099989      -9.03911523E-09
   2.54200006      -9.26090671E-09
   2.54299998      -9.48757872E-09
   2.54399991      -9.71922365E-09
   2.54500008      -9.95593208E-09
   2.54600000      -1.01977937E-08
   2.54699993      -1.04448947E-08
   2.54800010      -1.06973266E-08
   2.54900002      -1.09551834E-08
   2.54999995      -1.12185630E-08
   2.55100012      -1.14875727E-08
   2.55200005      -1.17623271E-08
   2.55299997      -1.20429480E-08
   2.55399990      -1.23295631E-08
   2.55500007      -1.26223050E-08
   2.55599999      -1.29213076E-08
   2.55699992      -1.32267033E-08
   2.55800009      -1.35386218E-08
   2.55900002      -1.38571838E-08
   2.55999994      -1.41825032E-08
   2.56100011      -1.45146855E-08
   2.56200004      -1.48538248E-08
   2.56299996      -1.52000101E-08
   2.56399989      -1.55533275E-08
   2.56500006      -1.59138551E-08
   2.56599998      -1.62816800E-08
   2.56699991      -1.66568910E-08
   2.56800008      -1.70395840E-08
   2.56900001      -1.74298638E-08
   2.56999993      -1.78278494E-08
   2.57100010      -1.82336688E-08
   2.57200003      -1.86474569E-08
   2.57299995      -1.90693559E-08
   2.57399988      -1.94995131E-08
   2.57500005      -1.99380743E-08
   2.57599998      -2.03851780E-08
   2.57699990      -2.08409610E-08
   2.57800007      -2.13055493E-08
   2.57900000      -2.17790639E-08
   2.57999992      -2.22616237E-08
   2.58100009      -2.27533334E-08
   2.58200002      -2.32543087E-08
   2.58299994      -2.37646649E-08
   2.58400011      -2.42845264E-08
   2.58500004      -2.48140264E-08
   2.58599997      -2.53533177E-08
   2.58699989      -2.59025583E-08
   2.58800006      -2.64619260E-08
   2.58899999      -2.70316054E-08
   2.58999991      -2.76117937E-08
   2.59100008      -2.82026971E-08
   2.59200001      -2.88045303E-08
   2.59299994      -2.94175120E-08
   2.59400010      -3.00418677E-08
   2.59500003      -3.06778176E-08
   2.59599996      -3.13255910E-08
   2.59699988      -3.19854188E-08
   2.59800005      -3.26575282E-08
   2.59899998      -3.33421468E-08
   2.59999990      -3.40395161E-08
   2.60100007      -3.47498847E-08
   2.60200000      -3.54735121E-08
   2.60299993      -3.62106611E-08
   2.60400009      -3.69616266E-08
   2.60500002      -3.77267000E-08
   2.60599995      -3.85061831E-08
   2.60700011      -3.93003745E-08
   2.60800004      -4.01095761E-08
   2.60899997      -4.09340863E-08
   2.60999990      -4.17742072E-08
   2.61100006      -4.26302300E-08
   2.61199999      -4.35024567E-08
   2.61299992      -4.43911858E-08
   2.61400008      -4.52967157E-08
   2.61500001      -4.62193626E-08
   2.61599994      -4.71594284E-08
   2.61700010      -4.81172293E-08
   2.61800003      -4.90930994E-08
   2.61899996      -5.00873725E-08
   2.61999989      -5.11004004E-08
   2.62100005      -5.21325312E-08
   2.62199998      -5.31841309E-08
   2.62299991      -5.42555618E-08
   2.62400007      -5.53471899E-08
   2.62500000      -5.64593670E-08
   2.62599993      -5.75924588E-08
   2.62700009      -5.87468172E-08
   2.62800002      -5.99228045E-08
   2.62899995      -6.11207867E-08
   2.63000011      -6.23411509E-08
   2.63100004      -6.35842810E-08
   2.63199997      -6.48505534E-08
   2.63299990      -6.61403661E-08
   2.63400006      -6.74541170E-08
   2.63499999      -6.87921968E-08
   2.63599992      -7.01549752E-08
   2.63700008      -7.15428143E-08
   2.63800001      -7.29560483E-08
   2.63899994      -7.43949968E-08
   2.64000010      -7.58599441E-08
   2.64100003      -7.73511459E-08
   2.64199996      -7.88688226E-08
   2.64299989      -8.04131801E-08
   2.64400005      -8.19843748E-08
   2.64499998      -8.35825702E-08
   2.64599991      -8.52079012E-08
   2.64700007      -8.68604815E-08
   2.64800000      -8.85404390E-08
   2.64899993      -9.02478661E-08
   2.65000010      -9.19828409E-08
   2.65100002      -9.37454487E-08
   2.65199995      -9.55357180E-08
   2.65300012      -9.73536629E-08
   2.65400004      -9.91992479E-08
   2.65499997      -1.01072409E-07
   2.65599990      -1.02973054E-07
   2.65700006      -1.04901069E-07
   2.65799999      -1.06856355E-07
   2.65899992      -1.08838776E-07
   2.66000009      -1.10848262E-07
   2.66100001      -1.12884756E-07
   2.66199994      -1.14948278E-07
   2.66300011      -1.17038923E-07
   2.66400003      -1.19156887E-07
   2.66499996      -1.21302449E-07
   2.66599989      -1.23476028E-07
   2.66700006      -1.25678156E-07
   2.66799998      -1.27909459E-07
   2.66899991      -1.30170733E-07
   2.67000008      -1.32462858E-07
   2.67100000      -1.34786802E-07
   2.67199993      -1.37143715E-07
   2.67300010      -1.39534762E-07
   2.67400002      -1.41961252E-07
   2.67499995      -1.44424590E-07
   2.67600012      -1.46926297E-07
   2.67700005      -1.49467979E-07
   2.67799997      -1.52051413E-07
   2.67899990      -1.54678432E-07
   2.68000007      -1.57351025E-07
   2.68099999      -1.60071295E-07
   2.68199992      -1.62841374E-07
   2.68300009      -1.65663465E-07
   2.68400002      -1.68539813E-07
   2.68499994      -1.71472621E-07
   2.68600011      -1.74464034E-07
   2.68700004      -1.77516171E-07
   2.68799996      -1.80631048E-07
   2.68899989      -1.83810570E-07
   2.69000006      -1.87056557E-07
   2.69099998      -1.90370670E-07
   2.69199991      -1.93754531E-07
   2.69300008      -1.97209573E-07
   2.69400001      -2.00737219E-07
   2.69499993      -2.04338733E-07
   2.69600010      -2.08015422E-07
   2.69700003      -2.11768452E-07
   2.69799995      -2.15599044E-07
   2.69899988      -2.19508379E-07
   2.70000005      -2.23497622E-07
   2.70099998      -2.27567909E-07
   2.70199990      -2.31720435E-07
   2.70300007      -2.35956307E-07
   2.70400000      -2.40276648E-07
   2.70499992      -2.44682695E-07
   2.70600009      -2.49175542E-07
   2.70700002      -2.53756497E-07
   2.70799994      -2.58426837E-07
   2.70900011      -2.63187928E-07
   2.71000004      -2.68041219E-07
   2.71099997      -2.72988331E-07
   2.71199989      -2.78030939E-07
   2.71300006      -2.83170749E-07
   2.71399999      -2.88409666E-07
   2.71499991      -2.93749679E-07
   2.71600008      -2.99192749E-07
   2.71700001      -3.04740922E-07
   2.71799994      -3.10396388E-07
   2.71900010      -3.16161191E-07
   2.72000003      -3.22037380E-07
   2.72099996      -3.28027056E-07
   2.72199988      -3.34132210E-07
   2.72300005      -3.40354802E-07
   2.72399998      -3.46696709E-07
   2.72499990      -3.53159948E-07
   2.72600007      -3.59746423E-07
   2.72700000      -3.66458067E-07
   2.72799993      -3.73296871E-07
   2.72900009      -3.80264851E-07
   2.73000002      -3.87364111E-07
   2.73099995      -3.94596668E-07
   2.73200011      -4.01964655E-07
   2.73300004      -4.09470147E-07
   2.73399997      -4.17115245E-07
   2.73499990      -4.24902112E-07
   2.73600006      -4.32832877E-07
   2.73699999      -4.40909673E-07
   2.73799992      -4.49134546E-07
   2.73900008      -4.57509572E-07
   2.74000001      -4.66036880E-07
   2.74099994      -4.74718377E-07
   2.74200010      -4.83556107E-07
   2.74300003      -4.92551976E-07
   2.74399996      -5.01707802E-07
   2.74499989      -5.11025576E-07
   2.74600005      -5.20506887E-07
   2.74699998      -5.30153557E-07
   2.74799991      -5.39967061E-07
   2.74900007      -5.49948993E-07
   2.75000000      -5.60100716E-07
   2.75099993      -5.70423310E-07
   2.75200009      -5.80917913E-07
   2.75300002      -5.91585319E-07
   2.75399995      -6.02426439E-07
   2.75500011      -6.13441898E-07
   2.75600004      -6.24632378E-07
   2.75699997      -6.35998504E-07
   2.75799990      -6.47540844E-07
   2.75900006      -6.59259911E-07
   2.75999999      -6.71156386E-07
   2.76099992      -6.83230780E-07
   2.76200008      -6.95483834E-07
   2.76300001      -7.07916058E-07
   2.76399994      -7.20528135E-07
   2.76500010      -7.33320690E-07
   2.76600003      -7.46294461E-07
   2.76699996      -7.59449904E-07
   2.76799989      -7.72787473E-07
   2.76900005      -7.86307623E-07
   2.76999998      -8.00010753E-07
   2.77099991      -8.13897202E-07
   2.77200007      -8.27967426E-07
   2.77300000      -8.42221652E-07
   2.77399993      -8.56660336E-07
   2.77500010      -8.71283646E-07
   2.77600002      -8.86091868E-07
   2.77699995      -9.01085286E-07
   2.77800012      -9.16263900E-07
   2.77900004      -9.31627994E-07
   2.77999997      -9.47177455E-07
   2.78099990      -9.62912395E-07
   2.78200006      -9.78832873E-07
   2.78299999      -9.94938659E-07
   2.78399992      -1.01122976E-06
   2.78500009      -1.02770582E-06
   2.78600001      -1.04436708E-06
   2.78699994      -1.06121342E-06
   2.78800011      -1.07824485E-06
   2.78900003      -1.09546204E-06
   2.78999996      -1.11286522E-06
   2.79099989      -1.13045508E-06
   2.79200006      -1.14823251E-06
   2.79299998      -1.16619833E-06
   2.79399991      -1.18435355E-06
   2.79500008      -1.20269965E-06
   2.79600000      -1.22123743E-06
   2.79699993      -1.23996836E-06
   2.79800010      -1.25889380E-06
   2.79900002      -1.27801502E-06
   2.79999995      -1.29733348E-06
   2.80100012      -1.31685044E-06
   2.80200005      -1.33656749E-06
   2.80299997      -1.35648622E-06
   2.80399990      -1.37660857E-06
   2.80500007      -1.39693645E-06
   2.80599999      -1.41747171E-06
   2.80699992      -1.43821717E-06
   2.80800009      -1.45917511E-06
   2.80900002      -1.48034815E-06
   2.80999994      -1.50173912E-06
   2.81100011      -1.52335065E-06
   2.81200004      -1.54518534E-06
   2.81299996      -1.56724616E-06
   2.81399989      -1.58953560E-06
   2.81500006      -1.61205674E-06
   2.81599998      -1.63481207E-06
   2.81699991      -1.65780409E-06
   2.81800008      -1.68103543E-06
   2.81900001      -1.70450846E-06
   2.81999993      -1.72822558E-06
   2.82100010      -1.75218906E-06
   2.82200003      -1.77640118E-06
   2.82299995      -1.80086431E-06
   2.82399988      -1.82558085E-06
   2.82500005      -1.85055319E-06
   2.82599998      -1.87578348E-06
   2.82699990      -1.90127412E-06
   2.82800007      -1.92702691E-06
   2.82900000      -1.95304438E-06
   2.82999992      -1.97932832E-06
   2.83100009      -2.00588056E-06
   2.83200002      -2.03270361E-06
   2.83299994      -2.05979973E-06
   2.83400011      -2.08717120E-06
   2.83500004      -2.11482097E-06
   2.83599997      -2.14275133E-06
   2.83699989      -2.17096544E-06
   2.83800006      -2.19946651E-06
   2.83899999      -2.22825838E-06
   2.83999991      -2.25734493E-06
   2.84100008      -2.28673048E-06
   2.84200001      -2.31641934E-06
   2.84299994      -2.34641652E-06
   2.84400010      -2.37672566E-06
   2.84500003      -2.40735108E-06
   2.84599996      -2.43829709E-06
   2.84699988      -2.46956711E-06
   2.84800005      -2.50116568E-06
   2.84899998      -2.53309622E-06
   2.84999990      -2.56536237E-06
   2.85100007      -2.59796821E-06
   2.85200000      -2.63091670E-06
   2.85299993      -2.66421171E-06
   2.85400009      -2.69785573E-06
   2.85500002      -2.73185242E-06
   2.85599995      -2.76620449E-06