   2.00000000       0.00000000    
   2.00099993       0.00000000    
   2.00200009       0.00000000    
   2.00300002       0.00000000    
   2.00399995       0.00000000    
   2.00500011       4.11468049E-25
   2.00600004       4.29355889E-24
   2.00699997       2.43575824E-23
   2.00799990       9.86951073E-23
   2.00900006       3.17117439E-22
   2.00999999       8.52574209E-22
   2.01099992       1.98035137E-21
   2.01200008       4.05653654E-21
   2.01300001       7.42280459E-21
   2.01399994       1.22113572E-20
   2.01500010       1.80440985E-20
   2.01600003       2.36563202E-20
   2.01699996       2.65299796E-20
   2.01799989       2.26896143E-20
   2.01900005       6.87167854E-21
   2.01999998      -2.67171664E-20
   2.02099991      -8.29304980E-20
   2.02200007      -1.63591303E-19
   2.02300000      -2.65171098E-19
   2.02399993      -3.76924492E-19
   2.02500010      -4.80306662E-19
   2.02600002      -5.50360536E-19
   2.02699995      -5.59298016E-19
   2.02800012      -4.81820506E-19
   2.02900004      -3.01053030E-19
   2.02999997      -1.35837807E-20
   2.03099990       3.67803585E-19
   2.03200006       8.14515754E-19
   2.03299999       1.28557443E-18
   2.03399992       1.73316248E-18
   2.03500009       2.10892944E-18
   2.03600001       2.36980152E-18
   2.03699994       2.48258615E-18
   2.03800011       2.42731250E-18
   2.03900003       2.19965792E-18
   2.03999996       1.81269538E-18
   2.04099989       1.29765375E-18
   2.04200006       7.02670595E-19
   2.04299998       8.80938628E-20
   2.04399991      -4.82894238E-19
   2.04500008      -9.58556746E-19
   2.04600000      -1.31635796E-18
   2.04699993      -1.58082818E-18
   2.04800010      -1.83642513E-18
   2.04900002      -2.22928567E-18
   2.04999995      -2.95209573E-18
   2.05100012      -4.20845756E-18
   2.05200005      -6.15735836E-18
   2.05299997      -8.84441777E-18
   2.05399990      -1.21334029E-17
   2.05500007      -1.56572998E-17
   2.05599999      -1.88105073E-17
   2.05699992      -2.08003664E-17
   2.05800009      -2.07660583E-17
   2.05900002      -1.79568619E-17
   2.05999994      -1.19427493E-17
   2.06100011      -2.81346584E-18
   2.06200004       8.68723277E-18
   2.06299996       2.11430028E-17
   2.06399989       3.25966932E-17
   2.06500006       4.08389789E-17
   2.06599998       4.38250678E-17
   2.06699991       4.01557144E-17
   2.06800008       2.95322173E-17
   2.06900001       1.30836142E-17
   2.06999993      -6.52715441E-18
   2.07100010      -2.52826199E-17
   2.07200003      -3.82941180E-17
   2.07299995      -4.05510340E-17
   2.07399988      -2.78407785E-17
   2.07500005       2.30271407E-18
   2.07599998       4.97906216E-17
   2.07699990       1.11477808E-16
   2.07800007       1.81101772E-16
   2.07900000       2.49733371E-16
   2.07999992       3.06728233E-16
   2.08100009       3.41079310E-16
   2.08200002       3.42990957E-16
   2.08299994       3.05441087E-16
   2.08400011       2.25479932E-16
   2.08500004       1.05038451E-16
   2.08599997      -4.89147068E-17
   2.08699989      -2.24932749E-16
   2.08800006      -4.08318214E-16
   2.08899999      -5.82860576E-16
   2.08999991      -7.32837183E-16
   2.09100008      -8.44980798E-16
   2.09200001      -9.10115620E-16
   2.09299994      -9.24208131E-16
   2.09400010      -8.88673193E-16
   2.09500003      -8.09884835E-16
   2.09599996      -6.97974260E-16
   2.09699988      -5.65100254E-16
   2.09800005      -4.23464381E-16
   2.09899998      -2.83379690E-16
   2.09999990      -1.51693873E-16
   2.10100007      -3.08177056E-17
   2.10200000       8.14781705E-17
   2.10299993       1.91444216E-16
   2.10400009       3.07975965E-16
   2.10500002       4.40660976E-16
   2.10599995       5.97523087E-16
   2.10700011       7.82801433E-16
   2.10800004       9.95123211E-16
   2.10899997       1.22639910E-15
   2.10999990       1.46168876E-15
   2.11100006       1.68015984E-15
   2.11199999       1.85710089E-15
   2.11299992       1.96678234E-15
   2.11400008       1.98581242E-15
   2.11500001       1.89652371E-15
   2.11599994       1.68990262E-15
   2.11700010       1.36761135E-15
   2.11800003       9.42778375E-16
   2.11899996       4.39414461E-16
   2.11999989      -1.09485560E-16
   2.12100005      -6.64902494E-16
   2.12199998      -1.18541615E-15
   2.12299991      -1.63102409E-15
   2.12400007      -1.96669298E-15
   2.12500000      -2.16526757E-15
   2.12599993      -2.20948904E-15
   2.12700009      -2.09302032E-15
   2.12800002      -1.82051711E-15
   2.12899995      -1.40686540E-15
   2.13000011      -8.75759593E-16
   2.13100004      -2.57795854E-16
   2.13199997       4.11771647E-16
   2.13299990       1.09548232E-15
   2.13400006       1.75620825E-15
   2.13499999       2.35963071E-15
   2.13599992       2.87645295E-15
   2.13700008       3.28409666E-15
   2.13800001       3.56759689E-15
   2.13899994       3.71943602E-15
   2.14000010       3.73816688E-15
   2.14100003       3.62583168E-15
   2.14199996       3.38443682E-15
   2.14299989       3.01195048E-15
   2.14400005       2.49850685E-15
   2.14499998       1.82359015E-15
   2.14599991       9.54944733E-16
   2.14700007      -1.50197232E-16
   2.14800000      -1.54127417E-15
   2.14899993      -3.26801278E-15
   2.15000010      -5.37198290E-15
   2.15100002      -7.87693631E-15
   2.15199995      -1.07790719E-14
   2.15300012      -1.40385149E-14
   2.15400004      -1.75732841E-14
   2.15499997      -2.12568610E-14
   2.15599990      -2.49201345E-14
   2.15700006      -2.83580312E-14
   2.15799999      -3.13406561E-14
   2.15899992      -3.36282007E-14
   2.16000009      -3.49884069E-14
   2.16100001      -3.52149577E-14
   2.16199994      -3.41450026E-14
   2.16300011      -3.16738823E-14
   2.16400003      -2.77654114E-14
   2.16499996      -2.24564003E-14
   2.16599989      -1.58547576E-14
   2.16700006      -8.13122661E-15
   2.16799998       4.94248754E-16
   2.16899991       9.76989401E-15
   2.17000008       1.94308511E-14
   2.17100000       2.92167210E-14
   2.17199993       3.88854056E-14
   2.17300010       4.82213214E-14
   2.17400002       5.70369015E-14
   2.17499995       6.51675640E-14
   2.17600012       7.24612563E-14
   2.17700005       7.87649703E-14
   2.17799997       8.39108446E-14
   2.17899990       8.77049423E-14
   2.18000007       8.99209770E-14
   2.18099999       9.03007324E-14
   2.18199992       8.85615705E-14
   2.18300009       8.44105601E-14
   2.18400002       7.75632000E-14
   2.18499994       6.77647635E-14
   2.18600011       5.48114343E-14
   2.18700004       3.85687745E-14
   2.18799996       1.89856658E-14
   2.18899989      -3.89733666E-15
   2.19000006      -2.99456945E-14
   2.19099998      -5.89338962E-14
   2.19199991      -9.05525180E-14
   2.19300008      -1.24417918E-13
   2.19400001      -1.60082573E-13
   2.19499993      -1.97044814E-13
   2.19600010      -2.34756984E-13
   2.19700003      -2.72631581E-13
   2.19799995      -3.10045609E-13
   2.19899988      -3.46344074E-13
   2.20000005      -3.80843686E-13
   2.20099998      -4.12837651E-13
   2.20199990      -4.41602917E-13
   2.20300007      -4.66409301E-13
   2.20400000      -4.86530900E-13
   2.20499992      -5.01258486E-13
   2.20600009      -5.09911124E-13
   2.20700002      -5.11845828E-13
   2.20799994      -5.06462981E-13
   2.20900011      -4.93207038E-13
   2.21000004      -4.71562242E-13
   2.21099997      -4.41044499E-13
   2.21199989      -4.01190826E-13
   2.21300006      -3.51550007E-13
   2.21399999      -2.91676568E-13
   2.21499991      -2.21130297E-13
   2.21600008      -1.39483477E-13
   2.21700001      -4.63343082E-14
   2.21799994       5.86750971E-14
   2.21900010       1.75840150E-13
   2.22000003       3.05377197E-13
   2.22099996       4.47416653E-13
   2.22199988       6.02004774E-13
   2.22300005       7.69117734E-13
   2.22399998       9.48685575E-13
   2.22499990       1.14062232E-12
   2.22600007       1.34485598E-12
   2.22700000       1.56135565E-12
   2.22799993       1.79014605E-12
   2.22900009       2.03131002E-12
   2.23000002       2.28497646E-12
   2.23099995       2.55129663E-12
   2.23200011       2.83041385E-12
   2.23300004       3.12243222E-12
   2.23399997       3.42738880E-12
   2.23499990       3.74524110E-12
   2.23600006       4.07586248E-12
   2.23699999       4.41905366E-12
   2.23799992       4.77456703E-12
   2.23900008       5.14213368E-12
   2.24000001       5.52149212E-12
   2.24099994       5.91241292E-12
   2.24200010       6.31471438E-12
   2.24300003       6.72826204E-12
   2.24399996       7.15296052E-12
   2.24499989       7.58873606E-12
   2.24600005       8.03551409E-12
   2.24699998       8.49319139E-12
   2.24799991       8.96161791E-12
   2.24900007       9.44058547E-12
   2.25000000       9.92982779E-12
   2.25099993       1.04290257E-11
   2.25200009       1.09378262E-11
   2.25300002       1.14558623E-11
   2.25399995       1.19827741E-11
   2.25500011       1.25182260E-11
   2.25600004       1.30619248E-11
   2.25699997       1.36136180E-11
   2.25799990       1.41730837E-11
   2.25900006       1.47401310E-11
   2.25999999       1.53145691E-11
   2.26099992       1.58961993E-11
   2.26200008       1.64847962E-11
   2.26300001       1.70800908E-11
   2.26399994       1.76817797E-11
   2.26500010       1.82895209E-11
   2.26600003       1.89029469E-11
   2.26699996       1.95216864E-11
   2.26799989       2.01453645E-11
   2.26900005       2.07736293E-11
   2.26999998       2.14061494E-11
   2.27099991       2.20426039E-11
   2.27200007       2.26826682E-11
   2.27300000       2.33259974E-11
   2.27399993       2.39721923E-11
   2.27500010       2.46207776E-11
   2.27600002       2.52711827E-11
   2.27699995       2.59227414E-11
   2.27800012       2.65746869E-11
   2.27900004       2.72261918E-11
   2.27999997       2.78763835E-11
   2.28099990       2.85243947E-11
   2.28200006       2.91694099E-11
   2.28299999       2.98106817E-11
   2.28399992       3.04475785E-11
   2.28500009       3.10795660E-11
   2.28600001       3.17061967E-11
   2.28699994       3.23270855E-11
   2.28800011       3.29418541E-11
   2.28900003       3.35501002E-11
   2.28999996       3.41513137E-11
   2.29099989       3.47448736E-11
   2.29200006       3.53300098E-11
   2.29299998       3.59058339E-11
   2.29399991       3.64713468E-11
   2.29500008       3.70255111E-11
   2.29600000       3.75672965E-11
   2.29699993       3.80957488E-11
   2.29800010       3.86100422E-11
   2.29900002       3.91094934E-11
   2.29999995       3.95935611E-11
   2.30100012       4.00618150E-11
   2.30200005       4.05138666E-11
   2.30299997       4.09493134E-11
   2.30399990       4.13676350E-11
   2.30500007       4.17681618E-11
   2.30599999       4.21500265E-11
   2.30699992       4.25121674E-11
   2.30800009       4.28533563E-11
   2.30900002       4.31722921E-11
   2.30999994       4.34676461E-11
   2.31100011       4.37381589E-11
   2.31200004       4.39827133E-11
   2.31299996       4.42003482E-11
   2.31399989       4.43902727E-11
   2.31500006       4.45518136E-11
   2.31599998       4.46843604E-11
   2.31699991       4.47872815E-11
   2.31800008       4.48598207E-11
   2.31900001       4.49010551E-11
   2.31999993       4.49098501E-11
   2.32100010       4.48848667E-11
   2.32200003       4.48245850E-11
   2.32299995       4.47273919E-11
   2.32399988       4.45916429E-11
   2.32500005       4.44157593E-11
   2.32599998       4.41982839E-11
   2.32699990       4.39379366E-11
   2.32800007       4.36336210E-11
   2.32900000       4.32843969E-11
   2.32999992       4.28894489E-11
   2.33100009       4.24480034E-11
   2.33200002       4.19592590E-11
   2.33299994       4.14223274E-11
   2.33400011       4.08361921E-11
   2.33500004       4.01996804E-11
   2.33599997       3.95114809E-11
   2.33699989       3.87701711E-11
   2.33800006       3.79742869E-11
   2.33899999       3.71223711E-11
   2.33999991       3.62130395E-11
   2.34100008       3.52450361E-11
   2.34200001       3.42172402E-11
   2.34299994       3.31286734E-11
   2.34400010       3.19784754E-11
   2.34500003       3.07658517E-11
   2.34599996       2.94900250E-11
   2.34699988       2.81501853E-11
   2.34800005       2.67454444E-11
   2.34899998       2.52748170E-11
   2.34999990       2.37372327E-11
   2.35100007       2.21315518E-11
   2.35200000       2.04566277E-11
   2.35299993       1.87113450E-11
   2.35400009       1.68946732E-11
   2.35500002       1.50057015E-11
   2.35599995       1.30436417E-11
   2.35700011       1.10078136E-11
   2.35800004       8.89760574E-12
   2.35899997       6.71242402E-12
   2.35999990       4.45164088E-12
   2.36100006       2.11455701E-12
   2.36199999      -2.99609567E-13
   2.36299992      -2.79169721E-12
   2.36400008      -5.36255068E-12
   2.36500001      -8.01292886E-12
   2.36599994      -1.07434183E-11
   2.36700010      -1.35543417E-11
   2.36800003      -1.64457042E-11
   2.36899996      -1.94171727E-11
   2.36999989      -2.24681402E-11
   2.37100005      -2.55978051E-11
   2.37199998      -2.88053522E-11
   2.37299991      -3.20901153E-11
   2.37400007      -3.54517839E-11
   2.37500000      -3.88905540E-11
   2.37599993      -4.24072548E-11
   2.37700009      -4.60033713E-11
   2.37800002      -4.96809885E-11
   2.37899995      -5.34426600E-11
   2.38000011      -5.72911822E-11
   2.38100004      -6.12293619E-11
   2.38199997      -6.52597698E-11
   2.38299990      -6.93844773E-11
   2.38400006      -7.36049346E-11
   2.38499999      -7.79219120E-11
   2.38599992      -8.23355550E-11
   2.38700008      -8.68455169E-11
   2.38800001      -9.14512494E-11
   2.38899994      -9.61522389E-11
   2.39000010      -1.00948368E-10
   2.39100003      -1.05840142E-10
   2.39199996      -1.10828895E-10
   2.39299989      -1.15916846E-10
   2.39400005      -1.21107041E-10
   2.39499998      -1.26403221E-10
   2.39599991      -1.31809466E-10
   2.39700007      -1.37329939E-10
   2.39800000      -1.42968484E-10
   2.39899993      -1.48728238E-10
   2.40000010      -1.54611449E-10
   2.40100002      -1.60619282E-10
   2.40199995      -1.66751765E-10
   2.40300012      -1.73007983E-10
   2.40400004      -1.79386186E-10
   2.40499997      -1.85884197E-10
   2.40599990      -1.92499697E-10
   2.40700006      -1.99230576E-10
   2.40799999      -2.06075212E-10
   2.40899992      -2.13032675E-10
   2.41000009      -2.20102894E-10
   2.41100001      -2.27286509E-10
   2.41199994      -2.34584907E-10
   2.41300011      -2.41999920E-10
   2.41400003      -2.49533588E-10
   2.41499996      -2.57187965E-10
   2.41599989      -2.64964634E-10
   2.41700006      -2.72864675E-10
   2.41799998      -2.80888562E-10
   2.41899991      -2.89035934E-10
   2.42000008      -2.97305652E-10
   2.42100000      -3.05695996E-10
   2.42199993      -3.14204746E-10
   2.42300010      -3.22829458E-10
   2.42400002      -3.31567634E-10
   2.42499995      -3.40416972E-10
   2.42600012      -3.49375501E-10
   2.42700005      -3.58441860E-10
   2.42799997      -3.67615161E-10
   2.42899990      -3.76895015E-10
   2.43000007      -3.86281618E-10
   2.43099999      -3.95775274E-10
   2.43199992      -4.05376427E-10
   2.43300009      -4.15085299E-10
   2.43400002      -4.24901780E-10
   2.43499994      -4.34825009E-10
   2.43600011      -4.44853571E-10
   2.43700004      -4.54985133E-10
   2.43799996      -4.65216615E-10
   2.43899989      -4.75544437E-10
   2.44000006      -4.85964546E-10
   2.44099998      -4.96472863E-10
   2.44199991      -5.07065778E-10
   2.44300008      -5.17740184E-10
   2.44400001      -5.28493971E-10
   2.44499993      -5.39326361E-10
   2.44600010      -5.50237800E-10
   2.44700003      -5.61230118E-10
   2.44799995      -5.72305814E-10
   2.44899988      -5.83468329E-10
   2.45000005      -5.94720717E-10
   2.45099998      -6.06065753E-10
   2.45199990      -6.17504770E-10
   2.45300007      -6.29037544E-10
   2.45400000      -6.40661801E-10
   2.45499992      -6.52373267E-10
   2.45600009      -6.64165611E-10
   2.45700002      -6.76031231E-10
   2.45799994      -6.87961799E-10
   2.45900011      -6.99949154E-10
   2.46000004      -7.11985970E-10
   2.46099997      -7.24066862E-10
   2.46199989      -7.36188610E-10
   2.46300006      -7.48350659E-10
   2.46399999      -7.60555119E-10
   2.46499991      -7.72805930E-10
   2.46600008      -7.85108534E-10
   2.46700001      -7.97468869E-10
   2.46799994      -8.09892098E-10
   2.46900010      -8.22381718E-10
   2.47000003      -8.34938785E-10
   2.47099996      -8.47561243E-10
   2.47199988      -8.60243932E-10
   2.47300005      -8.72978800E-10
   2.47399998      -8.85755802E-10
   2.47499990      -8.98563446E-10
   2.47600007      -9.11390519E-10
   2.47700000      -9.24227084E-10
   2.47799993      -9.37065536E-10
   2.47900009      -9.49901047E-10
   2.48000002      -9.62732005E-10
   2.48099995      -9.75560299E-10
   2.48200011      -9.88389925E-10
   2.48300004      -1.00122666E-09
   2.48399997      -1.01407704E-09
   2.48499990      -1.02694686E-09
   2.48600006      -1.03984021E-09
   2.48699999      -1.05275855E-09
   2.48799992      -1.06570031E-09
   2.48900008      -1.07866094E-09
   2.49000001      -1.09163301E-09
   2.49099994      -1.10460663E-09
   2.49200010      -1.11757070E-09
   2.49300003      -1.13051413E-09
   2.49399996      -1.14342613E-09
   2.49499989      -1.15629772E-09
   2.49600005      -1.16912235E-09
   2.49699998      -1.18189536E-09
   2.49799991      -1.19461474E-09
   2.49900007      -1.20728028E-09
   2.50000000      -1.21989296E-09
   2.50099993      -1.23245381E-09
   2.50200009      -1.24496424E-09
   2.50300002      -1.25742461E-09
   2.50399995      -1.26983313E-09
   2.50500011      -1.28218658E-09
   2.50600004      -1.29447997E-09
   2.50699997      -1.30670674E-09
   2.50799990      -1.31885891E-09
   2.50900006      -1.33092826E-09
   2.50999999      -1.34290634E-09
   2.51099992      -1.35478517E-09
   2.51200008      -1.36655776E-09
   2.51300001      -1.37821821E-09
   2.51399994      -1.38976175E-09
   2.51500010      -1.40118450E-09
   2.51600003      -1.41248324E-09
   2.51699996      -1.42365519E-09
   2.51799989      -1.43469681E-09
   2.51900005      -1.44560464E-09
   2.51999998      -1.45637358E-09
   2.52099991      -1.46699819E-09
   2.52200007      -1.47747159E-09
   2.52300000      -1.48778645E-09
   2.52399993      -1.49793455E-09
   2.52500010      -1.50790713E-09
   2.52600002      -1.51769597E-09
   2.52699995      -1.52729218E-09
   2.52800012      -1.53668789E-09
   2.52900004      -1.54587498E-09
   2.52999997      -1.55484592E-09
   2.53099990      -1.56359348E-09
   2.53200006      -1.57211055E-09
   2.53299999      -1.58038949E-09
   2.53399992      -1.58842250E-09
   2.53500009      -1.59620128E-09
   2.53600001      -1.60371649E-09
   2.53699994      -1.61095848E-09
   2.53800011      -1.61791636E-09
   2.53900003      -1.62457947E-09
   2.53999996      -1.63093705E-09
   2.54099989      -1.63697855E-09
   2.54200006      -1.64269331E-09
   2.54299998      -1.64807157E-09
   2.54399991      -1.65310354E-09
   2.54500008      -1.65777958E-09
   2.54600000      -1.66209002E-09
   2.54699993      -1.66602487E-09
   2.54800010      -1.66957370E-09
   2.54900002      -1.67272596E-09
   2.54999995      -1.67546976E-09
   2.55100012      -1.67779313E-09
   2.55200005      -1.67968306E-09
   2.55299997      -1.68112613E-09
   2.55399990      -1.68210823E-09
   2.55500007      -1.68261549E-09
   2.55599999      -1.68263337E-09
   2.55699992      -1.68214864E-09
   2.55800009      -1.68114789E-09
   2.55900002      -1.67961811E-09
   2.55999994      -1.67754610E-09
   2.56100011      -1.67491809E-09
   2.56200004      -1.67171987E-09
   2.56299996      -1.66793601E-09
   2.56399989      -1.66354996E-09
   2.56500006      -1.65854408E-09
   2.56599998      -1.65289893E-09
   2.56699991      -1.64659431E-09
   2.56800008      -1.63960923E-09
   2.56900001      -1.63192204E-09
   2.56999993      -1.62351133E-09
   2.57100010      -1.61435620E-09
   2.57200003      -1.60443703E-09
   2.57299995      -1.59373570E-09
   2.57399988      -1.58223579E-09
   2.57500005      -1.56992330E-09
   2.57599998      -1.55678592E-09
   2.57699990      -1.54281155E-09
   2.57800007      -1.52798763E-09
   2.57900000      -1.51230106E-09
   2.57999992      -1.49573620E-09
   2.58100009      -1.47827550E-09
   2.58200002      -1.45989831E-09
   2.58299994      -1.44058132E-09
   2.58400011      -1.42029921E-09
   2.58500004      -1.39902456E-09
   2.58599997      -1.37673062E-09
   2.58699989      -1.35339073E-09
   2.58800006      -1.32897970E-09
   2.58899999      -1.30347477E-09
   2.58999991      -1.27685518E-09
   2.59100008      -1.24910315E-09
   2.59200001      -1.22020316E-09
   2.59299994      -1.19014210E-09
   2.59400010      -1.15890741E-09
   2.59500003      -1.12648701E-09
   2.59599996      -1.09286780E-09
   2.59699988      -1.05803410E-09
   2.59800005      -1.02196784E-09
   2.59899998      -9.84647697E-10
   2.59999990      -9.46048018E-10
   2.60100007      -9.06139830E-10
   2.60200000      -8.64890715E-10
   2.60299993      -8.22266089E-10
   2.60400009      -7.78229259E-10
   2.60500002      -7.32743588E-10
   2.60599995      -6.85773105E-10
   2.60700011      -6.37283393E-10
   2.60800004      -5.87243421E-10
   2.60899997      -5.35624545E-10
   2.60999990      -4.82400786E-10
   2.61100006      -4.27547914E-10
   2.61199999      -3.71042336E-10
   2.61299992      -3.12859211E-10
   2.61400008      -2.52971616E-10
   2.61500001      -1.91349242E-10
   2.61599994      -1.27957533E-10
   2.61700010      -6.27575769E-11
   2.61800003       4.29401046E-12
   2.61899996       7.32453889E-11
   2.61999989       1.44148193E-10
   2.62100005       2.17056484E-10
   2.62199998       2.92025237E-10
   2.62299991       3.69107078E-10
   2.62400007       4.48351467E-10
   2.62500000       5.29805477E-10
   2.62599993       6.13513351E-10
   2.62700009       6.99517000E-10
   2.62800002       7.87858001E-10
   2.62899995       8.78578543E-10
   2.63000011       9.71724479E-10
   2.63100004       1.06734599E-09
   2.63199997       1.16549781E-09
   2.63299990       1.26623967E-09
   2.63400006       1.36963629E-09
   2.63499999       1.47575696E-09
   2.63599992       1.58467317E-09
   2.63700008       1.69645764E-09
   2.63800001       1.81118520E-09
   2.63899994       1.92892702E-09
   2.64000010       2.04975170E-09
   2.64100003       2.17372231E-09
   2.64199996       2.30089769E-09
   2.64299989       2.43132980E-09
   2.64400005       2.56506572E-09
   2.64499998       2.70214762E-09
   2.64599991       2.84261437E-09
   2.64700007       2.98650371E-09
   2.64800000       3.13385429E-09
   2.64899993       3.28470762E-09
   2.65000010       3.43911122E-09
   2.65100002       3.59711683E-09
   2.65199995       3.75878262E-09
   2.65300012       3.92416943E-09
   2.65400004       4.09334033E-09
   2.65499997       4.26635438E-09
   2.65599990       4.44326709E-09
   2.65700006       4.62412908E-09
   2.65799999       4.80898077E-09
   2.65899992       4.99785413E-09
   2.66000009       5.19077537E-09
   2.66100001       5.38776668E-09
   2.66199994       5.58884450E-09
   2.66300011       5.79402526E-09
   2.66400003       6.00332717E-09
   2.66499996       6.21677332E-09
   2.66599989       6.43439479E-09
   2.66700006       6.65623068E-09
   2.66799998       6.88232715E-09
   2.66899991       7.11273573E-09
   2.67000008       7.34751326E-09
   2.67100000       7.58671703E-09
   2.67199993       7.83040388E-09
   2.67300010       8.07862843E-09
   2.67400002       8.33143865E-09
   2.67499995       8.58887805E-09
   2.67600012       8.85098483E-09
   2.67700005       9.11779718E-09
   2.67799997       9.38935862E-09
   2.67899990       9.66571356E-09
   2.68000007       9.94691707E-09
   2.68099999       1.02330331E-08
   2.68199992       1.05241416E-08
   2.68300009       1.08203402E-08
   2.68400002       1.11217391E-08
   2.68499994       1.14284715E-08
   2.68600011       1.17406813E-08
   2.68700004       1.20585302E-08
   2.68799996       1.23821922E-08
   2.68899989       1.27118538E-08
   2.69000006       1.30477122E-08
   2.69099998       1.33899727E-08
   2.69199991       1.37388465E-08
   2.69300008       1.40945557E-08
   2.69400001       1.44573313E-08
   2.69499993       1.48274166E-08
   2.69600010       1.52050710E-08
   2.69700003       1.55905688E-08
   2.69799995       1.59842077E-08
   2.69899988       1.63863110E-08
   2.70000005       1.67972161E-08
   2.70099998       1.72172854E-08
   2.70199990       1.76468866E-08
   2.70300007       1.80864106E-08
   2.70400000       1.85362499E-08
   2.70499992       1.89968006E-08
   2.70600009       1.94684500E-08
   2.70700002       1.99515817E-08
   2.70799994       2.04465547E-08
   2.70900011       2.09537134E-08
   2.71000004       2.14733955E-08
   2.71099997       2.20059331E-08
   2.71199989       2.25516583E-08
   2.71300006       2.31109052E-08
   2.71399999       2.36840201E-08
   2.71499991       2.42713600E-08
   2.71600008       2.48732910E-08
   2.71700001       2.54901984E-08
   2.71799994       2.61224713E-08
   2.71900010       2.67705023E-08
   2.72000003       2.74346892E-08
   2.72099996       2.81154264E-08
   2.72199988       2.88131012E-08
   2.72300005       2.95280902E-08
   2.72399998       3.02607646E-08
   2.72499990       3.10114956E-08
   2.72600007       3.17806474E-08
   2.72700000       3.25686038E-08
   2.72799993       3.33757484E-08
   2.72900009       3.42024862E-08
   2.73000002       3.50492364E-08
   2.73099995       3.59164325E-08
   2.73200011       3.68045399E-08
   2.73300004       3.77140275E-08
   2.73399997       3.86453785E-08
   2.73499990       3.95991009E-08
   2.73600006       4.05756850E-08
   2.73699999       4.15756460E-08
   2.73799992       4.25994777E-08
   2.73900008       4.36476704E-08
   2.74000001       4.47207071E-08
   2.74099994       4.58190428E-08
   2.74200010       4.69431356E-08
   2.74300003       4.80934226E-08
   2.74399996       4.92703407E-08
   2.74499989       5.04743340E-08
   2.74600005       5.17058538E-08
   2.74699998       5.29653583E-08
   2.74799991       5.42533343E-08
   2.74900007       5.55702719E-08
   2.75000000       5.69166794E-08
   2.75099993       5.82930930E-08
   2.75200009       5.97000351E-08
   2.75300002       6.11380173E-08
   2.75399995       6.26075476E-08
   2.75500011       6.41091020E-08
   2.75600004       6.56431567E-08
   2.75699997       6.72101450E-08
   2.75799990       6.88104720E-08
   2.75900006       7.04445640E-08
   2.75999999       7.21128188E-08
   2.76099992       7.38156416E-08
   2.76200008       7.55534302E-08
   2.76300001       7.73265967E-08
   2.76399994       7.91355390E-08
   2.76500010       8.09806906E-08
   2.76600003       8.28624636E-08
   2.76699996       8.47812558E-08
   2.76799989       8.67374368E-08
   2.76900005       8.87313476E-08
   2.76999998       9.07632938E-08
   2.77099991       9.28335098E-08
   2.77200007       9.49421874E-08
   2.77300000       9.70894902E-08
   2.77399993       9.92755531E-08
   2.77500010       1.01500461E-07
   2.77600002       1.03764329E-07
   2.77699995       1.06067262E-07
   2.77800012       1.08409388E-07
   2.77900004       1.10790857E-07
   2.77999997       1.13211840E-07
   2.78099990       1.15672499E-07
   2.78200006       1.18173034E-07
   2.78299999       1.20713622E-07
   2.78399992       1.23294427E-07
   2.78500009       1.25915676E-07
   2.78600001       1.28577440E-07
   2.78699994       1.31279890E-07
   2.78800011       1.34023068E-07
   2.78900003       1.36806975E-07
   2.78999996       1.39631609E-07
   2.79099989       1.42496930E-07
   2.79200006       1.45402794E-07
   2.79299998       1.48349201E-07
   2.79399991       1.51336081E-07
   2.79500008       1.54363420E-07
   2.79600000       1.57431245E-07
   2.79699993       1.60539585E-07
   2.79800010       1.63688512E-07
   2.79900002       1.66878095E-07
   2.79999995       1.70108379E-07
   2.80100012       1.73379362E-07
   2.80200005       1.76691074E-07
   2.80299997       1.80043457E-07
   2.80399990       1.83436470E-07
   2.80500007       1.86869983E-07
   2.80599999       1.90343897E-07
   2.80699992       1.93858085E-07
   2.80800009       1.97412447E-07
   2.80900002       2.01006898E-07
   2.80999994       2.04641424E-07
   2.81100011       2.08316038E-07
   2.81200004       2.12030798E-07
   2.81299996       2.15785832E-07
   2.81399989       2.19581295E-07
   2.81500006       2.23417373E-07
   2.81599998       2.27294237E-07
   2.81699991       2.31212098E-07
   2.81800008       2.35171157E-07
   2.81900001       2.39171555E-07
   2.81999993       2.43213435E-07
   2.82100010       2.47296867E-07
   2.82200003       2.51421852E-07
   2.82299995       2.55588503E-07
   2.82399988       2.59796877E-07
   2.82500005       2.64047031E-07
   2.82599998       2.68339051E-07
   2.82699990       2.72673162E-07
   2.82800007       2.77049594E-07
   2.82900000       2.81468630E-07
   2.82999992       2.85930582E-07
   2.83100009       2.90435850E-07
   2.83200002       2.94984801E-07
   2.83299994       2.99577863E-07
   2.83400011       3.04215405E-07
   2.83500004       3.08897768E-07
   2.83599997       3.13625179E-07
   2.83699989       3.18397952E-07
   2.83800006       3.23216227E-07
   2.83899999       3.28080205E-07
   2.83999991       3.32990084E-07
   2.84100008       3.37946005E-07
   2.84200001       3.42948198E-07
   2.84299994       3.47997002E-07
   2.84400010       3.53092759E-07
   2.84500003       3.58235894E-07
   2.84599996       3.63426977E-07
   2.84699988       3.68666548E-07
   2.84800005       3.73955089E-07
   2.84899998       3.79293084E-07
   2.84999990       3.84680988E-07
   2.85100007       3.90119254E-07
   2.85200000       3.95608168E-07
   2.85299993       4.01148071E-07
   2.85400009       4.06739275E-07
   2.85500002       4.12382036E-07
   2.85599995       4.18076638E-07