   2.00000000       0.00000000    
   2.00099993       0.00000000    
   2.00200009       0.00000000    
   2.00300002       0.00000000    
   2.00399995       0.00000000    
   2.00500011       0.00000000    
   2.00600004       0.00000000    
   2.00699997       0.00000000    
   2.00799990       0.00000000    
   2.00900006       5.60519386E-45
   2.00999999      -4.66572256E-37
   2.01099992      -5.46335860E-36
   2.01200008      -2.93164216E-35
   2.01300001      -1.00418327E-34
   2.01399994      -2.53845548E-34
   2.01500010      -5.06465047E-34
   2.01600003      -7.99942181E-34
   2.01699996      -9.36097304E-34
   2.01799989      -7.23413734E-34
   2.01900005      -7.76751239E-34
   2.01999998      -4.03092992E-33
   2.02099991      -1.63999623E-32
   2.02200007      -4.30934113E-32
   2.02300000      -7.84098167E-32
   2.02399993      -9.45817154E-32
   2.02500010      -4.54943497E-32
   2.02600002       1.00557982E-31
   2.02699995       3.11139390E-31
   2.02800012       4.72006450E-31
   2.02900004       4.52015382E-31
   2.02999997       2.31067982E-31
   2.03099990      -2.95050933E-32
   2.03200006      -1.04442567E-31
   2.03299999       3.01095090E-32
   2.03399992       6.68348590E-32
   2.03500009      -3.29101179E-31
   2.03600001      -9.01245406E-31
   2.03699994      -5.60512570E-31
   2.03800011       1.75536308E-30
   2.03900003       5.35470854E-30
   2.03999996       6.78003776E-30
   2.04099989       1.35006720E-30
   2.04200006      -1.27272447E-29
   2.04299998      -3.05252463E-29
   2.04399991      -4.08331002E-29
   2.04500008      -3.21706826E-29
   2.04600000      -6.94428742E-31
   2.04699993       4.63815208E-29
   2.04800010       9.49004508E-29
   2.04900002       1.31046160E-28
   2.04999995       1.43234383E-28
   2.05100012       1.15273985E-28
   2.05200005       1.95118972E-29
   2.05299997      -1.74118451E-28
   2.05399990      -4.65851157E-28
   2.05500007      -7.85768006E-28
   2.05599999      -9.79424547E-28
   2.05699992      -8.48969371E-28
   2.05800009      -2.47357438E-28
   2.05900002       8.17073564E-28
   2.05999994       2.12684026E-27
   2.06100011       3.29226284E-27
   2.06200004       3.86943130E-27
   2.06299996       3.50622133E-27
   2.06399989       2.05697503E-27
   2.06500006      -3.63311373E-28
   2.06599998      -3.37930293E-27
   2.06699991      -6.39763190E-27
   2.06800008      -8.70228441E-27
   2.06900001      -9.63096552E-27
   2.06999993      -8.82643679E-27
   2.07100010      -6.46847145E-27
   2.07200003      -3.30943751E-27
   2.07299995      -3.53981229E-28
   2.07399988       1.80507938E-27
   2.07500005       3.71063761E-27
   2.07599998       7.32913796E-27
   2.07699990       1.54348324E-26
   2.07800007       2.99685700E-26
   2.07900000       4.98115587E-26
   2.07999992       6.89404219E-26
   2.08100009       7.61328982E-26
   2.08200002       5.70992684E-26
   2.08299994      -8.52179223E-28
   2.08400011      -1.02531987E-25
   2.08500004      -2.38839201E-25
   2.08599997      -3.83396433E-25
   2.08699989      -4.94109487E-25
   2.08800006      -5.20916262E-25
   2.08899999      -4.19212518E-25
   2.08999991      -1.66222940E-25
   2.09100008       2.24444757E-25
   2.09200001       6.95837836E-25
   2.09299994       1.15327481E-24
   2.09400010       1.48454787E-24
   2.09500003       1.59189429E-24
   2.09599996       1.42748867E-24
   2.09699988       1.02017869E-24
   2.09800005       4.80755551E-25
   2.09899998      -2.23328155E-26
   2.09999990      -3.15519735E-25
   2.10100007      -2.87984446E-25
   2.10200000       4.74894018E-26
   2.10299993       5.25490275E-25
   2.10400009       8.48482815E-25
   2.10500002       6.58952277E-25
   2.10599995      -3.53410006E-25
   2.10700011      -2.34034461E-24
   2.10800004      -5.21377302E-24
   2.10899997      -8.61967564E-24
   2.10999990      -1.19741142E-23
   2.11100006      -1.45498910E-23
   2.11199999      -1.55915755E-23
   2.11299992      -1.44375303E-23
   2.11400008      -1.06375045E-23
   2.11500001      -4.06455927E-24
   2.11599994       4.97899224E-24
   2.11700010       1.56754740E-23
   2.11800003       2.66629464E-23
   2.11899996       3.61204704E-23
   2.11999989       4.20216044E-23
   2.12100005       4.25710681E-23
   2.12199998       3.67650834E-23
   2.12299991       2.49275912E-23
   2.12400007       9.01113367E-24
   2.12500000      -7.54520528E-24
   2.12599993      -2.05111850E-23
   2.12700009      -2.60426793E-23
   2.12800002      -2.20545172E-23
   2.12899995      -9.33779702E-24
   2.13000011       8.05866695E-24
   2.13100004       2.35071730E-23
   2.13199997       2.95406731E-23
   2.13299990       2.02541205E-23
   2.13400006      -6.36332914E-24
   2.13499999      -4.70162330E-23
   2.13599992      -9.32837550E-23
   2.13700008      -1.33605711E-22
   2.13800001      -1.56667536E-22
   2.13899994      -1.55205897E-22
   2.14000010      -1.28940779E-22
   2.14100003      -8.54304112E-23
   2.14199996      -3.81630616E-23
   2.14299989      -2.03114644E-24
   2.14400005       1.27455247E-23
   2.14499998       6.44173363E-24
   2.14599991      -6.72756831E-24
   2.14700007       5.97579244E-25
   2.14800000       6.28767391E-23
   2.14899993       2.10701769E-22
   2.15000010       4.56811099E-22
   2.15100002       7.82458636E-22
   2.15199995       1.12846217E-21
   2.15300012       1.39529627E-21
   2.15400004       1.45543196E-21
   2.15499997       1.17871723E-21
   2.15599990       4.68204270E-22
   2.15700006      -6.99878152E-22
   2.15799999      -2.24139329E-21
   2.15899992      -3.94562163E-21
   2.16000009      -5.48237135E-21
   2.16100001      -6.44065605E-21
   2.16199994      -6.39822871E-21
   2.16300011      -5.01340477E-21
   2.16400003      -2.12309132E-21
   2.16499996       2.17420971E-21
   2.16599989       7.47261314E-21
   2.16700006       1.30682872E-20
   2.16799998       1.80327894E-20
   2.16899991       2.13460193E-20
   2.17000008       2.20703404E-20
   2.17100000       1.95353145E-20
   2.17199993       1.34955026E-20
   2.17300010       4.22438433E-21
   2.17400002      -7.48360963E-21
   2.17499995      -2.04145736E-20
   2.17600012      -3.31304447E-20
   2.17700005      -4.42268464E-20
   2.17799997      -5.26042958E-20
   2.17899990      -5.76947168E-20
   2.18000007      -5.95876679E-20
   2.18099999      -5.90159504E-20
   2.18199992      -5.71864208E-20
   2.18300009      -5.54745188E-20
   2.18400002      -5.50341291E-20
   2.18499994      -5.64004635E-20
   2.18600011      -5.91763265E-20
   2.18700004      -6.18864287E-20
   2.18799996      -6.20603241E-20
   2.18899989      -5.65640772E-20
   2.19000006      -4.21511368E-20
   2.19099998      -1.61545579E-20
   2.19199991       2.27962705E-20
   2.19300008       7.41696731E-20
   2.19400001       1.35166986E-19
   2.19499993       2.00699323E-19
   2.19600010       2.63755017E-19
   2.19700003       3.16144889E-19
   2.19799995       3.49546364E-19
   2.19899988       3.56712152E-19
   2.20000005       3.32671182E-19
   2.20099998       2.75735358E-19
   2.20199990       1.88140201E-19
   2.20300007       7.61873992E-20
   2.20400000      -5.01803723E-20
   2.20499992      -1.78365227E-19
   2.20600009      -2.94571450E-19
   2.20700002      -3.85569589E-19
   2.20799994      -4.40543470E-19
   2.20900011      -4.52763254E-19
   2.21000004      -4.20828602E-19
   2.21099997      -3.49263727E-19
   2.21199989      -2.48317242E-19
   2.21300006      -1.32920157E-19
   2.21399999      -2.08703759E-20
   2.21499991       6.95700771E-20
   2.21600008       1.22377029E-19
   2.21700001       1.26404688E-19
   2.21799994       7.75752209E-20
   2.21900010      -1.97494186E-20
   2.22000003      -1.52503244E-19
   2.22099996      -2.99920956E-19
   2.22199988      -4.35805948E-19
   2.22300005      -5.31868500E-19
   2.22399998      -5.61758568E-19
   2.22499990      -5.05270352E-19
   2.22600007      -3.52112977E-19
   2.22700000      -1.04644273E-19
   2.22799993       2.20934022E-19
   2.22900009       5.95227330E-19
   2.23000002       9.78191429E-19
   2.23099995       1.32332189E-18
   2.23200011       1.58297037E-18
   2.23300004       1.71407208E-18
   2.23399997       1.68347643E-18
   2.23499990       1.47212227E-18
   2.23600006       1.07747647E-18
   2.23699999       5.13936207E-19
   2.23799992      -1.88776665E-19
   2.23900008      -9.88877258E-19
   2.24000001      -1.83683913E-18
   2.24099994      -2.68005381E-18
   2.24200010      -3.46712382E-18
   2.24300003      -4.15123237E-18
   2.24399996      -4.69229245E-18
   2.24499989      -5.05785541E-18
   2.24600005      -5.22304173E-18
   2.24699998      -5.16991357E-18
   2.24799991      -4.88678578E-18
   2.24900007      -4.36786849E-18
   2.25000000      -3.61345992E-18
   2.25099993      -2.63065107E-18
   2.25200009      -1.43426749E-18
   2.25300002      -4.76274699E-20
   2.25399995       1.49733029E-18
   2.25500011       3.16086061E-18
   2.25600004       4.89723389E-18
   2.25699997       6.65730218E-18
   2.25799990       8.39128740E-18
   2.25900006       1.00510948E-17
   2.25999999       1.15914904E-17
   2.26099992       1.29697528E-17
   2.26200008       1.41438174E-17
   2.26300001       1.50694490E-17
   2.26399994       1.56974396E-17
   2.26500010       1.59721032E-17
   2.26600003       1.58322684E-17
   2.26699996       1.52156466E-17
   2.26799989       1.40666795E-17
   2.26900005       1.23471893E-17
   2.26999998       1.00482203E-17
   2.27099991       7.20084877E-18
   2.27200007       3.88349179E-18
   2.27300000       2.23490398E-19
   2.27399993      -3.60848030E-18
   2.27500010      -7.41144564E-18
   2.27600002      -1.09735277E-17
   2.27699995      -1.40953049E-17
   2.27800012      -1.66137721E-17
   2.27900004      -1.84231023E-17
   2.27999997      -1.94886250E-17
   2.28099990      -1.98513470E-17
   2.28200006      -1.96217068E-17
   2.28299999      -1.89629815E-17
   2.28399992      -1.80665014E-17
   2.28500009      -1.71221953E-17
   2.28600001      -1.62889184E-17
   2.28699994      -1.56691583E-17
   2.28800011      -1.52921161E-17
   2.28900003      -1.51079179E-17
   2.28999996      -1.49939026E-17
   2.29099989      -1.47720528E-17
   2.29200006      -1.42347907E-17
   2.29299998      -1.31750648E-17
   2.29399991      -1.14159345E-17
   2.29500008      -8.83518312E-18
   2.29600000      -5.38141869E-18
   2.29699993      -1.07996670E-18
   2.29800010       3.97110470E-18
   2.29900002       9.61224155E-18
   2.29999995       1.56367394E-17
   2.30100012       2.18029937E-17
   2.30200005       2.78398389E-17
   2.30299997       3.34417078E-17
   2.30399990       3.82531759E-17
   2.30500007       4.18460216E-17
   2.30599999       4.36960111E-17
   2.30699992       4.31698713E-17
   2.30800009       3.95351272E-17
   2.30900002       3.20050870E-17
   2.30999994       1.98283316E-17
   2.31100011       2.42588871E-18
   2.31200004      -2.04296323E-17
   2.31299996      -4.84095476E-17
   2.31399989      -8.04272011E-17
   2.31500006      -1.14476622E-16
   2.31599998      -1.47555985E-16
   2.31699991      -1.75721247E-16
   2.31800008      -1.94308485E-16
   2.31900001      -1.98348858E-16
   2.31999993      -1.83177148E-16
   2.32100010      -1.45204396E-16
   2.32200003      -8.27910186E-17
   2.32299995       2.87799400E-18
   2.32399988       1.07044603E-16
   2.32500005       2.20905147E-16
   2.32599998       3.31566944E-16
   2.32699990       4.22571450E-16
   2.32800007       4.75080345E-16
   2.32900000       4.69756637E-16
   2.32999992       3.89283637E-16
   2.33100009       2.21359845E-16
   2.33200002      -3.81014379E-17
   2.33299994      -3.81946717E-16
   2.33400011      -7.89387114E-16
   2.33500004      -1.22473161E-15
   2.33599997      -1.63772751E-15
   2.33699989      -1.96590397E-15
   2.33800006      -2.13914889E-15
   2.33899999      -2.08652040E-15
   2.33999991      -1.74500847E-15
   2.34100008      -1.06963056E-15
   2.34200001      -4.39459023E-17
   2.34299994       1.31021534E-15
   2.34400010       2.92517916E-15
   2.34500003       4.68343829E-15
   2.34599996       6.41855521E-15
   2.34699988       7.92196881E-15
   2.34800005       8.95625618E-15
   2.34899998       9.27477445E-15
   2.34999990       8.64688417E-15
   2.35100007       6.88724014E-15
   2.35200000       3.88692662E-15
   2.35299993      -3.56304753E-16
   2.35400009      -5.71175958E-15
   2.35500002      -1.18965473E-14
   2.35599995      -1.84660958E-14
   2.35700011      -2.48165271E-14
   2.35800004      -3.02000246E-14
   2.35899997      -3.37531313E-14
   2.35999990      -3.45366470E-14
   2.36100006      -3.15845135E-14
   2.36199999      -2.39578882E-14
   2.36299992      -1.07999750E-14
   2.36400008       8.61348736E-15
   2.36500001       3.48328307E-14
   2.36599994       6.82064336E-14
   2.36700010       1.08869273E-13
   2.36800003       1.56749586E-13
   2.36899996       2.11593601E-13
   2.36999989       2.73006308E-13
   2.37100005       3.40504426E-13
   2.37199998       4.13576698E-13
   2.37299991       4.91744720E-13
   2.37400007       5.74618911E-13
   2.37500000       6.61942018E-13
   2.37599993       7.53616462E-13
   2.37700009       8.49711252E-13
   2.37800002       9.50447620E-13
   2.37899995       1.05616395E-12
   2.38000011       1.16726409E-12
   2.38100004       1.28415334E-12
   2.38199997       1.40717093E-12
   2.38299990       1.53652427E-12
   2.38400006       1.67223494E-12
   2.38499999       1.81410139E-12
   2.38599992       1.96168450E-12
   2.38700008       2.11431805E-12
   2.38800001       2.27114161E-12
   2.38899994       2.43115771E-12
   2.39000010       2.59330209E-12
   2.39100003       2.75652136E-12
   2.39199996       2.91984948E-12
   2.39299989       3.08247481E-12
   2.39400005       3.24378545E-12
   2.39499998       3.40339302E-12
   2.39599991       3.56112730E-12
   2.39700007       3.71700327E-12
   2.39800000       3.87116554E-12
   2.39899993       4.02381514E-12
   2.40000010       4.17512899E-12
   2.40100002       4.32517824E-12
   2.40199995       4.47386225E-12
   2.40300012       4.62086055E-12
   2.40400004       4.76561152E-12
   2.40499997       4.90731934E-12
   2.40599990       5.04498917E-12
   2.40700006       5.17748604E-12
   2.40799999       5.30360738E-12
   2.40899992       5.42215838E-12
   2.41000009       5.53202449E-12
   2.41100001       5.63222429E-12
   2.41199994       5.72193811E-12
   2.41300011       5.80050808E-12
   2.41400003       5.86740595E-12
   2.41499996       5.92217855E-12
   2.41599989       5.96436745E-12
   2.41700006       5.99342581E-12
   2.41799998       6.00863716E-12
   2.41899991       6.00904613E-12
   2.42000008       5.99342234E-12
   2.42100000       5.96025182E-12
   2.42199993       5.90776776E-12
   2.42300010       5.83401209E-12
   2.42400002       5.73692916E-12
   2.42499995       5.61447069E-12
   2.42600012       5.46470421E-12
   2.42700005       5.28591407E-12
   2.42799997       5.07667129E-12
   2.42899990       4.83586738E-12
   2.43000007       4.56270915E-12
   2.43099999       4.25666403E-12
   2.43199992       3.91737077E-12
   2.43300009       3.54452080E-12
   2.43400002       3.13772424E-12
   2.43499994       2.69638153E-12
   2.43600011       2.21957543E-12
   2.43700004       1.70599884E-12
   2.43799996       1.15393036E-12
   2.43899989       5.61261649E-13
   2.44000006      -7.44238113E-14
   2.44099998      -7.55728921E-13
   2.44199991      -1.48529323E-12
   2.44300008      -2.26563256E-12
   2.44400001      -3.09899177E-12
   2.44499993      -3.98722548E-12
   2.44600010      -4.93172690E-12
   2.44700003      -5.93341825E-12
   2.44799995      -6.99279610E-12
   2.44899988      -8.11004389E-12
   2.45000005      -9.28518460E-12
   2.45099998      -1.05182607E-11
   2.45199990      -1.18095230E-11
   2.45300007      -1.31596027E-11
   2.45400000      -1.45696372E-11
   2.45499992      -1.60413419E-11
   2.45600009      -1.75770162E-11
   2.45700002      -1.91794740E-11
   2.45799994      -2.08519035E-11
   2.45900011      -2.25976998E-11
   2.46000004      -2.44202488E-11
   2.46099997      -2.63227183E-11
   2.46199989      -2.83078699E-11
   2.46300006      -3.03779259E-11
   2.46399999      -3.25345029E-11
   2.46499991      -3.47786071E-11
   2.46600008      -3.71107450E-11
   2.46700001      -3.95310278E-11
   2.46799994      -4.20394240E-11
   2.46900010      -4.46359373E-11
   2.47000003      -4.73208590E-11
   2.47099996      -5.00949386E-11
   2.47199988      -5.29595291E-11
   2.47300005      -5.59166220E-11
   2.47399998      -5.89688506E-11
   2.47499990      -6.21193791E-11
   2.47600007      -6.53717289E-11
   2.47700000      -6.87295915E-11
   2.47799993      -7.21965820E-11
   2.47900009      -7.57760521E-11
   2.48000002      -7.94709090E-11
   2.48099995      -8.32835120E-11
   2.48200011      -8.72156444E-11
   2.48300004      -9.12686038E-11
   2.48399997      -9.54432644E-11
   2.48499990      -9.97402994E-11
   2.48600006      -1.04160403E-10
   2.48699999      -1.08704497E-10
   2.48799992      -1.13373928E-10
   2.48900008      -1.18170612E-10
   2.49000001      -1.23097046E-10
   2.49099994      -1.28156416E-10
   2.49200010      -1.33352399E-10
   2.49300003      -1.38689060E-10
   2.49399996      -1.44170662E-10
   2.49499989      -1.49801421E-10
   2.49600005      -1.55585350E-10
   2.49699998      -1.61526056E-10
   2.49799991      -1.67626690E-10
   2.49900007      -1.73889875E-10
   2.50000000      -1.80317844E-10
   2.50099993      -1.86912513E-10
   2.50200009      -1.93675603E-10
   2.50300002      -2.00608988E-10
   2.50399995      -2.07714804E-10
   2.50500011      -2.14995591E-10
   2.50600004      -2.22454472E-10
   2.50699997      -2.30095137E-10
   2.50799990      -2.37921793E-10
   2.50900006      -2.45939102E-10
   2.50999999      -2.54151949E-10
   2.51099992      -2.62565192E-10
   2.51200008      -2.71183659E-10
   2.51300001      -2.80011708E-10
   2.51399994      -2.89053281E-10
   2.51500010      -2.98311847E-10
   2.51600003      -3.07790404E-10
   2.51699996      -3.17491589E-10
   2.51799989      -3.27417871E-10
   2.51900005      -3.37571859E-10
   2.51999998      -3.47956386E-10
   2.52099991      -3.58574836E-10
   2.52200007      -3.69431208E-10
   2.52300000      -3.80530218E-10
   2.52399993      -3.91877336E-10
   2.52500010      -4.03478695E-10
   2.52600002      -4.15340873E-10
   2.52699995      -4.27470698E-10
   2.52800012      -4.39875025E-10
   2.52900004      -4.52560517E-10
   2.52999997      -4.65533362E-10
   2.53099990      -4.78799167E-10
   2.53200006      -4.92362928E-10
   2.53299999      -5.06229281E-10
   2.53399992      -5.20402221E-10
   2.53500009      -5.34885691E-10
   2.53600001      -5.49683521E-10
   2.53699994      -5.64800096E-10
   2.53800011      -5.80240189E-10
   2.53900003      -5.96009464E-10
   2.53999996      -6.12114415E-10
   2.54099989      -6.28562313E-10
   2.54200006      -6.45361542E-10
   2.54299998      -6.62520871E-10
   2.54399991      -6.80049628E-10
   2.54500008      -6.97957192E-10
   2.54600000      -7.16252946E-10
   2.54699993      -7.34945937E-10
   2.54800010      -7.54044494E-10
   2.54900002      -7.73556441E-10
   2.54999995      -7.93488941E-10
   2.55100012      -8.13848600E-10
   2.55200005      -8.34641634E-10
   2.55299997      -8.55874205E-10
   2.55399990      -8.77552697E-10
   2.55500007      -8.99684049E-10
   2.55599999      -9.22275811E-10
   2.55699992      -9.45336365E-10
   2.55800009      -9.68875313E-10
   2.55900002      -9.92903093E-10
   2.55999994      -1.01743081E-09
   2.56100011      -1.04247033E-09
   2.56200004      -1.06803366E-09
   2.56299996      -1.09413323E-09
   2.56399989      -1.12078091E-09
   2.56500006      -1.14798848E-09
   2.56599998      -1.17576726E-09
   2.56699991      -1.20412746E-09
   2.56800008      -1.23307942E-09
   2.56900001      -1.26263267E-09
   2.56999993      -1.29279665E-09
   2.57100010      -1.32358124E-09
   2.57200003      -1.35499667E-09
   2.57299995      -1.38705369E-09
   2.57399988      -1.41976420E-09
   2.57500005      -1.45314072E-09
   2.57599998      -1.48719692E-09
   2.57699990      -1.52194712E-09
   2.57800007      -1.55740643E-09
   2.57900000      -1.59359015E-09
   2.57999992      -1.63051395E-09
   2.58100009      -1.66819314E-09
   2.58200002      -1.70664283E-09
   2.58299994      -1.74587766E-09
   2.58400011      -1.78591197E-09
   2.58500004      -1.82675930E-09
   2.58599997      -1.86843319E-09
   2.58699989      -1.91094718E-09
   2.58800006      -1.95431515E-09
   2.58899999      -1.99855088E-09
   2.58999991      -2.04366990E-09
   2.59100008      -2.08968753E-09
   2.59200001      -2.13662132E-09
   2.59299994      -2.18448881E-09
   2.59400010      -2.23330887E-09
   2.59500003      -2.28310082E-09
   2.59599996      -2.33388420E-09
   2.59699988      -2.38567877E-09
   2.59800005      -2.43850407E-09
   2.59899998      -2.49237897E-09
   2.59999990      -2.54732169E-09
   2.60100007      -2.60335065E-09
   2.60200000      -2.66048317E-09
   2.60299993      -2.71873635E-09
   2.60400009      -2.77812795E-09
   2.60500002      -2.83867552E-09
   2.60599995      -2.90039748E-09
   2.60700011      -2.96331404E-09
   2.60800004      -3.02744518E-09
   2.60899997      -3.09281378E-09
   2.60999990      -3.15944293E-09
   2.61100006      -3.22735794E-09
   2.61199999      -3.29658412E-09
   2.61299992      -3.36714789E-09
   2.61400008      -3.43907569E-09
   2.61500001      -3.51239438E-09
   2.61599994      -3.58713037E-09
   2.61700010      -3.66331010E-09
   2.61800003      -3.74095954E-09
   2.61899996      -3.82010512E-09
   2.61999989      -3.90077215E-09
   2.62100005      -3.98298683E-09
   2.62199998      -4.06677581E-09
   2.62299991      -4.15216617E-09
   2.62400007      -4.23918545E-09
   2.62500000      -4.32786251E-09
   2.62599993      -4.41822712E-09
   2.62700009      -4.51031124E-09
   2.62800002      -4.60414595E-09
   2.62899995      -4.69976591E-09
   2.63000011      -4.79720441E-09
   2.63100004      -4.89649699E-09
   2.63199997      -4.99767872E-09
   2.63299990      -5.10078602E-09
   2.63400006      -5.20585397E-09
   2.63499999      -5.31291899E-09
   2.63599992      -5.42201706E-09
   2.63700008      -5.53318324E-09
   2.63800001      -5.64645353E-09
   2.63899994      -5.76186299E-09
   2.64000010      -5.87944804E-09
   2.64100003      -5.99924466E-09
   2.64199996      -6.12129059E-09
   2.64299989      -6.24562491E-09
   2.64400005      -6.37228581E-09
   2.64499998      -6.50131549E-09
   2.64599991      -6.63275479E-09
   2.64700007      -6.76664502E-09
   2.64800000      -6.90302926E-09
   2.64899993      -7.04195058E-09
   2.65000010      -7.18345250E-09
   2.65100002      -7.32757810E-09
   2.65199995      -7.47437046E-09
   2.65300012      -7.62387398E-09
   2.65400004      -7.77613085E-09
   2.65499997      -7.93118637E-09
   2.65599990      -8.08908496E-09
   2.65700006      -8.24987101E-09
   2.65799999      -8.41358894E-09
   2.65899992      -8.58028404E-09
   2.66000009      -8.75000516E-09
   2.66100001      -8.92279850E-09
   2.66199994      -9.09871201E-09
   2.66300011      -9.27779542E-09
   2.66400003      -9.46009848E-09
   2.66499996      -9.64566915E-09
   2.66599989      -9.83455983E-09
   2.66700006      -1.00268212E-08
   2.66799998      -1.02225046E-08
   2.66899991      -1.04216591E-08
   2.67000008      -1.06243379E-08
   2.67100000      -1.08305906E-08
   2.67199993      -1.10404690E-08
   2.67300010      -1.12540235E-08
   2.67400002      -1.14713075E-08
   2.67499995      -1.16923724E-08
   2.67600012      -1.19172698E-08
   2.67700005      -1.21460539E-08
   2.67799997      -1.23787833E-08
   2.67899990      -1.26155149E-08
   2.68000007      -1.28563071E-08
   2.68099999      -1.31012241E-08
   2.68199992      -1.33503306E-08
   2.68300009      -1.36036906E-08
   2.68400002      -1.38613725E-08
   2.68499994      -1.41234446E-08
   2.68600011      -1.43899799E-08
   2.68700004      -1.46610502E-08
   2.68799996      -1.49367292E-08
   2.68899989      -1.52170951E-08
   2.69000006      -1.55022235E-08
   2.69099998      -1.57921960E-08
   2.69199991      -1.60870943E-08
   2.69300008      -1.63870055E-08
   2.69400001      -1.66920167E-08
   2.69499993      -1.70022201E-08
   2.69600010      -1.73177099E-08
   2.69700003      -1.76385822E-08
   2.69799995      -1.79649398E-08
   2.69899988      -1.82968822E-08
   2.70000005      -1.86345162E-08
   2.70099998      -1.89779463E-08
   2.70199990      -1.93272811E-08
   2.70300007      -1.96826289E-08
   2.70400000      -2.00440979E-08
   2.70499992      -2.04118020E-08
   2.70600009      -2.07858513E-08
   2.70700002      -2.11663629E-08
   2.70799994      -2.15534488E-08
   2.70900011      -2.19472316E-08
   2.71000004      -2.23478303E-08
   2.71099997      -2.27553638E-08
   2.71199989      -2.31699584E-08
   2.71300006      -2.35917437E-08
   2.71399999      -2.40208475E-08
   2.71499991      -2.44574068E-08
   2.71600008      -2.49015546E-08
   2.71700001      -2.53534296E-08
   2.71799994      -2.58131756E-08
   2.71900010      -2.62809365E-08
   2.72000003      -2.67568563E-08
   2.72099996      -2.72410823E-08
   2.72199988      -2.77337602E-08
   2.72300005      -2.82350427E-08
   2.72399998      -2.87450845E-08
   2.72499990      -2.92640365E-08
   2.72600007      -2.97920586E-08
   2.72700000      -3.03293177E-08
   2.72799993      -3.08759702E-08
   2.72900009      -3.14321937E-08
   2.73000002      -3.19981588E-08
   2.73099995      -3.25740395E-08
   2.73200011      -3.31600098E-08
   2.73300004      -3.37562582E-08
   2.73399997      -3.43629623E-08
   2.73499990      -3.49802995E-08
   2.73600006      -3.56084584E-08
   2.73699999      -3.62476129E-08
   2.73799992      -3.68979585E-08
   2.73900008      -3.75596834E-08
   2.74000001      -3.82329794E-08
   2.74099994      -3.89180528E-08
   2.74200010      -3.96151094E-08
   2.74300003      -4.03243554E-08
   2.74399996      -4.10460075E-08
   2.74499989      -4.17802717E-08
   2.74600005      -4.25273718E-08
   2.74699998      -4.32875176E-08
   2.74799991      -4.40609362E-08
   2.74900007      -4.48478552E-08
   2.75000000      -4.56484948E-08
   2.75099993      -4.64630858E-08
   2.75200009      -4.72918629E-08
   2.75300002      -4.81350568E-08
   2.75399995      -4.89929164E-08
   2.75500011      -4.98656725E-08
   2.75600004      -5.07535702E-08
   2.75699997      -5.16568619E-08
   2.75799990      -5.25757926E-08
   2.75900006      -5.35106182E-08
   2.75999999      -5.44615837E-08
   2.76099992      -5.54289556E-08
   2.76200008      -5.64129827E-08
   2.76300001      -5.74139278E-08
   2.76399994      -5.84320468E-08
   2.76500010      -5.94676024E-08
   2.76600003      -6.05208541E-08
   2.76699996      -6.15920683E-08
   2.76799989      -6.26815080E-08
   2.76900005      -6.37894360E-08
   2.76999998      -6.49161223E-08
   2.77099991      -6.60618227E-08
   2.77200007      -6.72268143E-08
   2.77300000      -6.84113459E-08
   2.77399993      -6.96157159E-08
   2.77500010      -7.08401799E-08
   2.77600002      -7.20850082E-08
   2.77699995      -7.33504919E-08
   2.77800012      -7.46369082E-08
   2.77900004      -7.59445342E-08
   2.77999997      -7.72736541E-08
   2.78099990      -7.86245238E-08
   2.78200006      -7.99974345E-08
   2.78299999      -8.13926775E-08
   2.78399992      -8.28105229E-08
   2.78500009      -8.42512620E-08
   2.78600001      -8.57151647E-08
   2.78699994      -8.72025225E-08
   2.78800011      -8.87136125E-08
   2.78900003      -9.02487116E-08
   2.78999996      -9.18081184E-08
   2.79099989      -9.33921172E-08
   2.79200006      -9.50009849E-08
   2.79299998      -9.66350058E-08
   2.79399991      -9.82944997E-08
   2.79500008      -9.99797365E-08
   2.79600000      -1.01691029E-07
   2.79699993      -1.03428675E-07
   2.79800010      -1.05192960E-07
   2.79900002      -1.06984203E-07
   2.79999995      -1.08802688E-07
   2.80100012      -1.10648720E-07
   2.80200005      -1.12522592E-07
   2.80299997      -1.14424608E-07
   2.80399990      -1.16355075E-07
   2.80500007      -1.18314311E-07
   2.80599999      -1.20302616E-07
   2.80699992      -1.22320287E-07
   2.80800009      -1.24367673E-07
   2.80900002      -1.26445102E-07
   2.80999994      -1.28552912E-07
   2.81100011      -1.30691447E-07
   2.81200004      -1.32861004E-07
   2.81299996      -1.35061953E-07
   2.81399989      -1.37294634E-07
   2.81500006      -1.39559376E-07
   2.81599998      -1.41856503E-07
   2.81699991      -1.44186359E-07
   2.81800008      -1.46549311E-07
   2.81900001      -1.48945674E-07
   2.81999993      -1.51375829E-07
   2.82100010      -1.53840105E-07
   2.82200003      -1.56338913E-07
   2.82299995      -1.58872595E-07
   2.82399988      -1.61441548E-07
   2.82500005      -1.64046142E-07
   2.82599998      -1.66686760E-07
   2.82699990      -1.69363830E-07
   2.82800007      -1.72077748E-07
   2.82900000      -1.74828912E-07
   2.82999992      -1.77617707E-07
   2.83100009      -1.80444530E-07
   2.83200002      -1.83309794E-07
   2.83299994      -1.86213896E-07
   2.83400011      -1.89157220E-07
   2.83500004      -1.92140220E-07
   2.83599997      -1.95163281E-07
   2.83699989      -1.98226843E-07
   2.83800006      -2.01331346E-07
   2.83899999      -2.04477217E-07
   2.83999991      -2.07664911E-07
   2.84100008      -2.10894839E-07
   2.84200001      -2.14167471E-07
   2.84299994      -2.17483247E-07
   2.84400010      -2.20842608E-07
   2.84500003      -2.24246023E-07
   2.84599996      -2.27693945E-07
   2.84699988      -2.31186874E-07
   2.84800005      -2.34725263E-07
   2.84899998      -2.38309624E-07
   2.84999990      -2.41940427E-07
   2.85100007      -2.45618224E-07
   2.85200000      -2.49343486E-07
   2.85299993      -2.53116696E-07
   2.85400009      -2.56938307E-07
   2.85500002      -2.60808889E-07
   2.85599995      -2.64728897E-07