   2.00000000       0.00000000    
   2.00099993       0.00000000    
   2.00200009       0.00000000    
   2.00300002       0.00000000    
   2.00399995       0.00000000    
   2.00500011       3.60300971E-26
   2.00600004       3.55501597E-25
   2.00699997       1.89531287E-24
   2.00799990       7.18579157E-24
   2.00900006       2.15195638E-23
   2.00999999       5.36634685E-23
   2.01099992       1.14806916E-22
   2.01200008       2.14290594E-22
   2.01300001       3.51343552E-22
   2.01399994       5.03693014E-22
   2.01500010       6.16120259E-22
   2.01600003       5.93796783E-22
   2.01699996       3.05255142E-22
   2.01799989      -4.02435485E-22
   2.01900005      -1.67739505E-21
   2.01999998      -3.62964793E-21
   2.02099991      -6.29540951E-21
   2.02200007      -9.60158943E-21
   2.02300000      -1.33311045E-20
   2.02399993      -1.70904126E-20
   2.02500010      -2.02853250E-20
   2.02600002      -2.21172861E-20
   2.02699995      -2.16148659E-20
   2.02800012      -1.77104555E-20
   2.02900004      -9.36134597E-21
   2.02999997       4.29604491E-21
   2.03099990       2.37729430E-20
   2.03200006       4.90450184E-20
   2.03299999       7.93632558E-20
   2.03399992       1.13070058E-19
   2.03500009       1.47457055E-19
   2.03600001       1.78736153E-19
   2.03699994       2.02217006E-19
   2.03800011       2.12763623E-19
   2.03900003       2.05528391E-19
   2.03999996       1.76842891E-19
   2.04099989       1.25031271E-19
   2.04200006       5.08575715E-20
   2.04299998      -4.26227073E-20
   2.04399991      -1.50858938E-19
   2.04500008      -2.69048430E-19
   2.04600000      -3.93391305E-19
   2.04699993      -5.21811018E-19
   2.04800010      -6.53679686E-19
   2.04900002      -7.88367334E-19
   2.04999995      -9.22829782E-19
   2.05100012      -1.04883669E-18
   2.05200005      -1.15068547E-18
   2.05299997      -1.20428481E-18
   2.05399990      -1.17830493E-18
   2.05500007      -1.03775153E-18
   2.05599999      -7.49879240E-19
   2.05699992      -2.91889032E-19
   2.05800009       3.40615786E-19
   2.05900002       1.12587439E-18
   2.05999994       2.01069326E-18
   2.06100011       2.90953294E-18
   2.06200004       3.70957128E-18
   2.06299996       4.28262009E-18
   2.06399989       4.50352694E-18
   2.06500006       4.27310462E-18
   2.06599998       3.54196877E-18
   2.06699991       2.33044613E-18
   2.06800008       7.39343647E-19
   2.06900001      -1.05272412E-18
   2.06999993      -2.80757983E-18
   2.07100010      -4.26029531E-18
   2.07200003      -5.16218150E-18
   2.07299995      -5.32683718E-18
   2.07399988      -4.67083580E-18
   2.07500005      -3.24119453E-18
   2.07599998      -1.22406135E-18
   2.07699990       1.06754989E-18
   2.07800007       3.22560548E-18
   2.07900000       4.79428796E-18
   2.07999992       5.32688060E-18
   2.08100009       4.44627322E-18
   2.08200002       1.90354794E-18
   2.08299994      -2.37028108E-18
   2.08400011      -8.22417458E-18
   2.08500004      -1.52638298E-17
   2.08599997      -2.28511192E-17
   2.08699989      -3.01318637E-17
   2.08800006      -3.60960410E-17
   2.08899999      -3.96707120E-17
   2.08999991      -3.98405388E-17
   2.09100008      -3.57842270E-17
   2.09200001      -2.70098326E-17
   2.09299994      -1.34684798E-17
   2.09400010       4.37322242E-18
   2.09500003       2.55174135E-17
   2.09599996       4.84835240E-17
   2.09699988       7.14194424E-17
   2.09800005       9.22647512E-17
   2.09899998       1.08948488E-16
   2.09999990       1.19599543E-16
   2.10100007       1.22746840E-16
   2.10200000       1.17487599E-16
   2.10299993       1.03604795E-16
   2.10400009       8.16198301E-17
   2.10500002       5.27716051E-17
   2.10599995       1.89208483E-17
   2.10700011      -1.76133950E-17
   2.10800004      -5.42688881E-17
   2.10899997      -8.84828749E-17
   2.10999990      -1.17932675E-16
   2.11100006      -1.40744146E-16
   2.11199999      -1.55642556E-16
   2.11299992      -1.62029687E-16
   2.11400008      -1.59983851E-16
   2.11500001      -1.50190959E-16
   2.11599994      -1.33824826E-16
   2.11700010      -1.12399168E-16
   2.11800003      -8.76131904E-17
   2.11899996      -6.12083809E-17
   2.11999989      -3.48468593E-17
   2.12100005      -1.00158437E-17
   2.12199998       1.20425966E-17
   2.12299991       3.03792105E-17
   2.12400007       4.43662722E-17
   2.12500000       5.37102136E-17
   2.12599993       5.84504416E-17
   2.12700009       5.89464257E-17
   2.12800002       5.58543055E-17
   2.12899995       5.00938726E-17
   2.13000011       4.28041747E-17
   2.13100004       3.52847059E-17
   2.13199997       2.89168843E-17
   2.13299990       2.50614616E-17
   2.13400006       2.49306976E-17
   2.13499999       2.94410124E-17
   2.13599992       3.90600112E-17
   2.13700008       5.36703931E-17
   2.13800001       7.24775454E-17
   2.13899994       9.39878081E-17
   2.14000010       1.16076641E-16
   2.14100003       1.36153333E-16
   2.14199996       1.51411692E-16
   2.14299989       1.59139743E-16
   2.14400005       1.57047293E-16
   2.14499998       1.43564011E-16
   2.14599991       1.18061305E-16
   2.14700007       8.09616061E-17
   2.14800000       3.37152068E-17
   2.14899993      -2.13534888E-17
   2.15000010      -8.13066661E-17
   2.15100002      -1.42917778E-16
   2.15199995      -2.03006322E-16
   2.15300012      -2.58726214E-16
   2.15400004      -3.07761904E-16
   2.15499997      -3.48404504E-16
   2.15599990      -3.79507871E-16
   2.15700006      -4.00348587E-16
   2.15799999      -4.10438020E-16
   2.15899992      -4.09340398E-16
   2.16000009      -3.96549724E-16
   2.16100001      -3.71458887E-16
   2.16199994      -3.33427082E-16
   2.16300011      -2.81924593E-16
   2.16400003      -2.16712003E-16
   2.16499996      -1.38001969E-16
   2.16599989      -4.65605111E-17
   2.16700006       5.62753007E-17
   2.16799998       1.68656436E-16
   2.16899991       2.88325515E-16
   2.17000008       4.12714633E-16
   2.17100000       5.38986387E-16
   2.17199993       6.63983569E-16
   2.17300010       7.84078547E-16
   2.17400002       8.94946319E-16
   2.17499995       9.91316539E-16
   2.17600012       1.06677256E-15
   2.17700005       1.11366643E-15
   2.17799997       1.12320635E-15
   2.17899990       1.08574070E-15
   2.18000007       9.91231095E-16
   2.18099999       8.29876136E-16
   2.18199992       5.92815966E-16
   2.18300009       2.72843077E-16
   2.18400002      -1.34970836E-16
   2.18499994      -6.32796927E-16
   2.18600011      -1.21978134E-15
   2.18700004      -1.89201178E-15
   2.18799996      -2.64271294E-15
   2.18899989      -3.46263765E-15
   2.19000006      -4.34059027E-15
   2.19099998      -5.26399848E-15
   2.19199991      -6.21946266E-15
   2.19300008      -7.19320115E-15
   2.19400001      -8.17135818E-15
   2.19499993      -9.14017160E-15
   2.19600010      -1.00860135E-14
   2.19700003      -1.09953669E-14
   2.19799995      -1.18547767E-14
   2.19899988      -1.26508403E-14
   2.20000005      -1.33702431E-14
   2.20099998      -1.39998630E-14
   2.20199990      -1.45269064E-14
   2.20300007      -1.49390591E-14
   2.20400000      -1.52246295E-14
   2.20499992      -1.53726620E-14
   2.20600009      -1.53730246E-14
   2.20700002      -1.52164895E-14
   2.20799994      -1.48948270E-14
   2.20900011      -1.44009154E-14
   2.21000004      -1.37289006E-14
   2.21099997      -1.28743545E-14
   2.21199989      -1.18344767E-14
   2.21300006      -1.06082847E-14
   2.21399999      -9.19679236E-15
   2.21499991      -7.60314646E-15
   2.21600008      -5.83270953E-15
   2.21700001      -3.89307735E-15
   2.21799994      -1.79399207E-15
   2.21900010       4.52826884E-16
   2.22000003       2.83396324E-15
   2.22099996       5.33466941E-15
   2.22199988       7.93929572E-15
   2.22300005       1.06317382E-14
   2.22399998       1.33958625E-14
   2.22499990       1.62158630E-14
   2.22600007       1.90765033E-14
   2.22700000       2.19632424E-14
   2.22799993       2.48622144E-14
   2.22900009       2.77600937E-14
   2.23000002       3.06438428E-14
   2.23099995       3.35004275E-14
   2.23200011       3.63165207E-14
   2.23300004       3.90782174E-14
   2.23399997       4.17708741E-14
   2.23499990       4.43790173E-14
   2.23600006       4.68864348E-14
   2.23699999       4.92764297E-14
   2.23799992       5.15321530E-14
   2.23900008       5.36371349E-14
   2.24000001       5.55757934E-14
   2.24099994       5.73340610E-14
   2.24200010       5.88998861E-14
   2.24300003       6.02637447E-14
   2.24399996       6.14189011E-14
   2.24499989       6.23616013E-14
   2.24600005       6.30910526E-14
   2.24699998       6.36092741E-14
   2.24799991       6.39207857E-14
   2.24900007       6.40322756E-14
   2.25000000       6.39521327E-14
   2.25099993       6.36900878E-14
   2.25200009       6.32568610E-14
   2.25300002       6.26638091E-14
   2.25399995       6.19226824E-14
   2.25500011       6.10453257E-14
   2.25600004       6.00434077E-14
   2.25699997       5.89280076E-14
   2.25799990       5.77091746E-14
   2.25900006       5.63953859E-14
   2.25999999       5.49930212E-14
   2.26099992       5.35058143E-14
   2.26200008       5.19345987E-14
   2.26300001       5.02772059E-14
   2.26399994       4.85286792E-14
   2.26500010       4.66818051E-14
   2.26600003       4.47278119E-14
   2.26699996       4.26572060E-14
   2.26799989       4.04605006E-14
   2.26900005       3.81287748E-14
   2.26999998       3.56539207E-14
   2.27099991       3.30286471E-14
   2.27200007       3.02462184E-14
   2.27300000       2.73000904E-14
   2.27399993       2.41836055E-14
   2.27500010       2.08898111E-14
   2.27600002       1.74115076E-14
   2.27699995       1.37415095E-14
   2.27800012       9.87303975E-15
   2.27900004       5.80018304E-15
   2.27999997       1.51830486E-15
   2.28099990      -2.97563119E-15
   2.28200006      -7.68283108E-15
   2.28299999      -1.26024933E-14
   2.28399992      -1.77316539E-14
   2.28500009      -2.30650053E-14
   2.28600001      -2.85947244E-14
   2.28699994      -3.43103130E-14
   2.28800011      -4.01985709E-14
   2.28900003      -4.62437265E-14
   2.28999996      -5.24277853E-14
   2.29099989      -5.87310081E-14
   2.29200006      -6.51324765E-14
   2.29299998      -7.16107268E-14
   2.29399991      -7.81441494E-14
   2.29500008      -8.47113720E-14
   2.29600000      -9.12913679E-14
   2.29699993      -9.78635711E-14
   2.29800010      -1.04407890E-13
   2.29900002      -1.10904734E-13
   2.29999995      -1.17335137E-13
   2.30100012      -1.23680837E-13
   2.30200005      -1.29924364E-13
   2.30299997      -1.36049253E-13
   2.30399990      -1.42040107E-13
   2.30500007      -1.47882710E-13
   2.30599999      -1.53564214E-13
   2.30699992      -1.59073465E-13
   2.30800009      -1.64401302E-13
   2.30900002      -1.69540922E-13
   2.30999994      -1.74488150E-13
   2.31100011      -1.79241509E-13
   2.31200004      -1.83801989E-13
   2.31299996      -1.88172503E-13
   2.31399989      -1.92357035E-13
   2.31500006      -1.96359584E-13
   2.31599998      -2.00183105E-13
   2.31699991      -2.03828409E-13
   2.31800008      -2.07293343E-13
   2.31900001      -2.10572093E-13
   2.31999993      -2.13654913E-13
   2.32100010      -2.16528360E-13
   2.32200003      -2.19175969E-13
   2.32299995      -2.21579618E-13
   2.32399988      -2.23721595E-13
   2.32500005      -2.25587412E-13
   2.32599998      -2.27169168E-13
   2.32699990      -2.28469235E-13
   2.32800007      -2.29503672E-13
   2.32900000      -2.30304762E-13
   2.32999992      -2.30922025E-13
   2.33100009      -2.31421083E-13
   2.33200002      -2.31879837E-13
   2.33299994      -2.32381416E-13
   2.33400011      -2.33004452E-13
   2.33500004      -2.33810828E-13
   2.33599997      -2.34832282E-13
   2.33699989      -2.36056509E-13
   2.33800006      -2.37415448E-13
   2.33899999      -2.38776853E-13
   2.33999991      -2.39941368E-13
   2.34100008      -2.40646966E-13
   2.34200001      -2.40581643E-13
   2.34299994      -2.39405148E-13
   2.34400010      -2.36779400E-13
   2.34500003      -2.32406488E-13
   2.34599996      -2.26071725E-13
   2.34699988      -2.17688430E-13
   2.34800005      -2.07340804E-13
   2.34899998      -1.95319713E-13
   2.34999990      -1.82146954E-13
   2.35100007      -1.68583463E-13
   2.35200000      -1.55617706E-13
   2.35299993      -1.44431599E-13
   2.35400009      -1.36343438E-13
   2.35500002      -1.32728396E-13
   2.35599995      -1.34920273E-13
   2.35700011      -1.44099535E-13
   2.35800004      -1.61174961E-13
   2.35899997      -1.86667495E-13
   2.35999990      -2.20605828E-13
   2.36100006      -2.62443062E-13
   2.36199999      -3.11003203E-13
   2.36299992      -3.64464670E-13
   2.36400008      -4.20384756E-13
   2.36500001      -4.75767429E-13
   2.36599994      -5.27172056E-13
   2.36700010      -5.70857597E-13
   2.36800003      -6.02954969E-13
   2.36899996      -6.19654989E-13
   2.36999989      -6.17400716E-13
   2.37100005      -5.93069430E-13
   2.37199998      -5.44131255E-13
   2.37299991      -4.68773674E-13
   2.37400007      -3.65980954E-13
   2.37500000      -2.35564904E-13
   2.37599993      -7.81432820E-14
   2.37700009       1.04930082E-13
   2.37800002       3.11678445E-13
   2.37899995       5.39647537E-13
   2.38000011       7.86071945E-13
   2.38100004       1.04804804E-12
   2.38199997       1.32270074E-12
   2.38299990       1.60733015E-12
   2.38400006       1.89952915E-12
   2.38499999       2.19726364E-12
   2.38599992       2.49891297E-12
   2.38700008       2.80326782E-12
   2.38800001       3.10949422E-12
   2.38899994       3.41706633E-12
   2.39000010       3.72567775E-12
   2.39100003       4.03514548E-12
   2.39199996       4.34530927E-12
   2.39299989       4.65594577E-12
   2.39400005       4.96669633E-12
   2.39499998       5.27701624E-12
   2.39599991       5.58615394E-12
   2.39700007       5.89314708E-12
   2.39800000       6.19684295E-12
   2.39899993       6.49593400E-12
   2.40000010       6.78900382E-12
   2.40100002       7.07457443E-12
   2.40199995       7.35115614E-12
   2.40300012       7.61728701E-12
   2.40400004       7.87156885E-12
   2.40499997       8.11268153E-12
   2.40599990       8.33940209E-12
   2.40700006       8.55060901E-12
   2.40799999       8.74527187E-12
   2.40899992       8.92244872E-12
   2.41000009       9.08128087E-12
   2.41100001       9.22098509E-12
   2.41199994       9.34085014E-12
   2.41300011       9.44023505E-12
   2.41400003       9.51857516E-12
   2.41499996       9.57537261E-12
   2.41599989       9.61019892E-12
   2.41700006       9.62267939E-12
   2.41799998       9.61248442E-12
   2.41899991       9.57929742E-12
   2.42000008       9.52279314E-12
   2.42100000       9.44260208E-12
   2.42199993       9.33828709E-12
   2.42300010       9.20931387E-12
   2.42400002       9.05503710E-12
   2.42499995       8.87469872E-12
   2.42600012       8.66744176E-12
   2.42700005       8.43233643E-12
   2.42799997       8.16842167E-12
   2.42899990       7.87476421E-12
   2.43000007       7.55052184E-12
   2.43099999       7.19499894E-12
   2.43199992       6.80770631E-12
   2.43300009       6.38840196E-12
   2.43400002       5.93711018E-12
   2.43499994       5.45412110E-12
   2.43600011       4.93996077E-12
   2.43700004       4.39534130E-12
   2.43799996       3.82108928E-12
   2.43899989       3.21806579E-12
   2.44000006       2.58707921E-12
   2.44099998       1.92880434E-12
   2.44199991       1.24371368E-12
   2.44300008       5.32032805E-13
   2.44400001      -2.06278232E-13
   2.44499993      -9.71514535E-13
   2.44600010      -1.76418602E-12
   2.44700003      -2.58495178E-12
   2.44799995      -3.43453694E-12
   2.44899988      -4.31363755E-12
   2.45000005      -5.22282608E-12
   2.45099998      -6.16246594E-12
   2.45199990      -7.13264430E-12
   2.45300007      -8.13313045E-12
   2.45400000      -9.16336104E-12
   2.45499992      -1.02224592E-11
   2.45600009      -1.13092773E-11
   2.45700002      -1.24224641E-11
   2.45799994      -1.35605555E-11
   2.45900011      -1.47220552E-11
   2.46000004      -1.59055356E-11
   2.46099997      -1.71097147E-11
   2.46199989      -1.83335135E-11
   2.46300006      -1.95761046E-11
   2.46399999      -2.08369138E-11
   2.46499991      -2.21156184E-11
   2.46600008      -2.34120952E-11
   2.46700001      -2.47263616E-11
   2.46799994      -2.60585043E-11
   2.46900010      -2.74085928E-11
   2.47000003      -2.87765974E-11
   2.47099996      -3.01623171E-11
   2.47199988      -3.15653233E-11
   2.47300005      -3.29849099E-11
   2.47399998      -3.44200744E-11
   2.47499990      -3.58695330E-11
   2.47600007      -3.73317384E-11
   2.47700000      -3.88049107E-11
   2.47799993      -4.02871174E-11
   2.47900009      -4.17763324E-11
   2.48000002      -4.32705156E-11
   2.48099995      -4.47676479E-11
   2.48200011      -4.62658314E-11
   2.48300004      -4.77632829E-11
   2.48399997      -4.92583925E-11
   2.48499990      -5.07497135E-11
   2.48600006      -5.22359656E-11
   2.48699999      -5.37159969E-11
   2.48799992      -5.51887355E-11
   2.48900008      -5.66531579E-11
   2.49000001      -5.81082196E-11
   2.49099994      -5.95527794E-11
   2.49200010      -6.09855708E-11
   2.49300003      -6.24051644E-11
   2.49399996      -6.38099365E-11
   2.49499989      -6.51980345E-11
   2.49600005      -6.65674460E-11
   2.49699998      -6.79159715E-11
   2.49799991      -6.92412724E-11
   2.49900007      -7.05409620E-11
   2.50000000      -7.18125906E-11
   2.50099993      -7.30537297E-11
   2.50200009      -7.42620548E-11
   2.50300002      -7.54353108E-11
   2.50399995      -7.65714020E-11
   2.50500011      -7.76683370E-11
   2.50600004      -7.87242702E-11
   2.50699997      -7.97374319E-11
   2.50799990      -8.07061085E-11
   2.50900006      -8.16286205E-11
   2.50999999      -8.25032473E-11
   2.51099992      -8.33281985E-11
   2.51200008      -8.41015660E-11
   2.51300001      -8.48213375E-11
   2.51399994      -8.54853549E-11
   2.51500010      -8.60913285E-11
   2.51600003      -8.66368435E-11
   2.51699996      -8.71194020E-11
   2.51799989      -8.75364364E-11
   2.51900005      -8.78853518E-11
   2.51999998      -8.81635598E-11
   2.52099991      -8.83684653E-11
   2.52200007      -8.84975010E-11
   2.52300000      -8.85481619E-11
   2.52399993      -8.85179499E-11
   2.52500010      -8.84043949E-11
   2.52600002      -8.82050266E-11
   2.52699995      -8.79173678E-11
   2.52800012      -8.75389344E-11
   2.52900004      -8.70672076E-11
   2.52999997      -8.64996269E-11
   2.53099990      -8.58336249E-11
   2.53200006      -8.50665927E-11
   2.53299999      -8.41959349E-11
   2.53399992      -8.32190220E-11
   2.53500009      -8.21332446E-11
   2.53600001      -8.09359801E-11
   2.53699994      -7.96245986E-11
   2.53800011      -7.81964563E-11
   2.53900003      -7.66488470E-11
   2.53999996      -7.49790369E-11
   2.54099989      -7.31841948E-11
   2.54200006      -7.12614343E-11
   2.54299998      -6.92078062E-11
   2.54399991      -6.70202713E-11
   2.54500008      -6.46957557E-11
   2.54600000      -6.22311855E-11
   2.54699993      -5.96234867E-11
   2.54800010      -5.68696375E-11
   2.54900002      -5.39667096E-11
   2.54999995      -5.09118754E-11
   2.55100012      -4.77024496E-11
   2.55200005      -4.43358614E-11
   2.55299997      -4.08096369E-11
   2.55399990      -3.71213789E-11
   2.55500007      -3.32687072E-11
   2.55599999      -2.92491933E-11
   2.55699992      -2.50603358E-11
   2.55800009      -2.06994907E-11
   2.55900002      -1.61638793E-11
   2.55999994      -1.14505532E-11
   2.56100011      -6.55640386E-12
   2.56200004      -1.47819853E-12
   2.56299996       3.78739271E-12
   2.56399989       9.24373945E-12
   2.56500006       1.48941987E-11
   2.56599998       2.07420730E-11
   2.56699991       2.67905611E-11
   2.56800008       3.30427456E-11
   2.56900001       3.95015930E-11
   2.56999993       4.61699706E-11
   2.57100010       5.30506958E-11
   2.57200003       6.01466030E-11
   2.57299995       6.74605927E-11
   2.57399988       7.49956763E-11
   2.57500005       8.27550459E-11
   2.57599998       9.07420736E-11
   2.57699990       9.89603538E-11
   2.57800007       1.07413634E-10
   2.57900000       1.16105778E-10
   2.57999992       1.25040756E-10
   2.58100009       1.34222494E-10
   2.58200002       1.43654935E-10
   2.58299994       1.53341825E-10
   2.58400011       1.63286815E-10
   2.58500004       1.73493359E-10
   2.58599997       1.83964760E-10
   2.58699989       1.94704225E-10
   2.58800006       2.05714848E-10
   2.58899999       2.16999793E-10
   2.58999991       2.28562225E-10
   2.59100008       2.40405501E-10
   2.59200001       2.52533189E-10
   2.59299994       2.64948952E-10
   2.59400010       2.77656786E-10
   2.59500003       2.90660801E-10
   2.59599996       3.03965186E-10
   2.59699988       3.17574272E-10
   2.59800005       3.31492389E-10
   2.59899998       3.45723672E-10
   2.59999990       3.60272340E-10
   2.60100007       3.75142417E-10
   2.60200000       3.90337762E-10
   2.60299993       4.05862233E-10
   2.60400009       4.21719687E-10
   2.60500002       4.37913983E-10
   2.60599995       4.54449256E-10
   2.60700011       4.71329809E-10
   2.60800004       4.88560359E-10
   2.60899997       5.06145847E-10
   2.60999990       5.24091603E-10
   2.61100006       5.42403400E-10
   2.61199999       5.61087177E-10
   2.61299992       5.80149040E-10
   2.61400008       5.99595262E-10
   2.61500001       6.19432228E-10
   2.61599994       6.39666431E-10
   2.61700010       6.60304089E-10
   2.61800003       6.81351475E-10
   2.61899996       7.02814862E-10
   2.61999989       7.24700355E-10
   2.62100005       7.47013951E-10
   2.62199998       7.69762032E-10
   2.62299991       7.92950816E-10
   2.62400007       8.16586909E-10
   2.62500000       8.40677084E-10
   2.62599993       8.65228444E-10
   2.62700009       8.90248320E-10
   2.62800002       9.15744258E-10
   2.62899995       9.41723921E-10
   2.63000011       9.68195080E-10
   2.63100004       9.95165506E-10
   2.63199997       1.02264275E-09
   2.63299990       1.05063436E-09
   2.63400006       1.07914788E-09
   2.63499999       1.10819054E-09
   2.63599992       1.13776966E-09
   2.63700008       1.16789267E-09
   2.63800001       1.19856669E-09
   2.63899994       1.22979904E-09
   2.64000010       1.26159716E-09
   2.64100003       1.29396882E-09
   2.64199996       1.32692202E-09
   2.64299989       1.36046507E-09
   2.64400005       1.39460687E-09
   2.64499998       1.42935641E-09
   2.64599991       1.46472290E-09
   2.64700007       1.50071566E-09
   2.64800000       1.53734425E-09
   2.64899993       1.57461788E-09
   2.65000010       1.61254587E-09
   2.65100002       1.65113756E-09
   2.65199995       1.69040226E-09
   2.65300012       1.73034942E-09
   2.65400004       1.77098847E-09
   2.65499997       1.81232906E-09
   2.65599990       1.85438076E-09
   2.65700006       1.89715377E-09
   2.65799999       1.94065786E-09
   2.65899992       1.98490335E-09
   2.66000009       2.02990136E-09
   2.66100001       2.07566275E-09
   2.66199994       2.12219908E-09
   2.66300011       2.16952167E-09
   2.66400003       2.21764251E-09
   2.66499996       2.26657360E-09
   2.66599989       2.31632735E-09
   2.66700006       2.36691600E-09
   2.66799998       2.41835152E-09
   2.66899991       2.47064613E-09
   2.67000008       2.52381205E-09
   2.67100000       2.57786170E-09
   2.67199993       2.63280797E-09
   2.67300010       2.68866374E-09
   2.67400002       2.74544343E-09
   2.67499995       2.80316081E-09
   2.67600012       2.86183011E-09
   2.67700005       2.92146596E-09
   2.67799997       2.98208436E-09
   2.67899990       3.04370129E-09
   2.68000007       3.10633341E-09
   2.68099999       3.16999893E-09
   2.68199992       3.23471583E-09
   2.68300009       3.30050365E-09
   2.68400002       3.36738148E-09
   2.68499994       3.43536977E-09
   2.68600011       3.50448848E-09
   2.68700004       3.57475893E-09
   2.68799996       3.64620312E-09
   2.68899989       3.71884390E-09
   2.69000006       3.79270393E-09
   2.69099998       3.86780652E-09
   2.69199991       3.94417565E-09
   2.69300008       4.02183620E-09
   2.69400001       4.10081347E-09
   2.69499993       4.18113322E-09
   2.69600010       4.26282165E-09
   2.69700003       4.34590586E-09
   2.69799995       4.43041248E-09
   2.69899988       4.51636906E-09
   2.70000005       4.60380445E-09
   2.70099998       4.69274664E-09
   2.70199990       4.78322404E-09
   2.70300007       4.87526508E-09
   2.70400000       4.96889818E-09
   2.70499992       5.06415310E-09
   2.70600009       5.16106002E-09
   2.70700002       5.25964783E-09
   2.70799994       5.35994804E-09
   2.70900011       5.46199219E-09
   2.71000004       5.56581004E-09
   2.71099997       5.67143399E-09
   2.71199989       5.77889514E-09
   2.71300006       5.88822724E-09
   2.71399999       5.99946270E-09
   2.71499991       6.11263618E-09
   2.71600008       6.22778140E-09
   2.71700001       6.34493391E-09
   2.71799994       6.46413012E-09
   2.71900010       6.58540555E-09
   2.72000003       6.70879796E-09
   2.72099996       6.83434465E-09
   2.72199988       6.96208291E-09
   2.72300005       7.09205406E-09
   2.72399998       7.22429672E-09
   2.72499990       7.35885353E-09
   2.72600007       7.49576579E-09
   2.72700000       7.63507479E-09
   2.72799993       7.77682629E-09
   2.72900009       7.92106292E-09
   2.73000002       8.06782907E-09
   2.73099995       8.21717006E-09
   2.73200011       8.36913117E-09
   2.73300004       8.52376036E-09
   2.73399997       8.68110472E-09
   2.73499990       8.84121221E-09
   2.73600006       9.00413166E-09
   2.73699999       9.16991283E-09
   2.73799992       9.33860456E-09
   2.73900008       9.51025747E-09
   2.74000001       9.68492575E-09
   2.74099994       9.86266357E-09
   2.74200010       1.00435233E-08
   2.74300003       1.02275628E-08
   2.74399996       1.04148388E-08
   2.74499989       1.06054063E-08
   2.74600005       1.07993277E-08
   2.74699998       1.09966605E-08
   2.74799991       1.11974687E-08
   2.74900007       1.14018128E-08
   2.75000000       1.16097594E-08
   2.75099993       1.18213732E-08
   2.75200009       1.20367201E-08
   2.75300002       1.22558674E-08
   2.75399995       1.24788819E-08
   2.75500011       1.27058302E-08
   2.75600004       1.29367832E-08
   2.75699997       1.31718094E-08
   2.75799990       1.34109799E-08
   2.75900006       1.36543647E-08
   2.75999999       1.39020333E-08
   2.76099992       1.41540575E-08
   2.76200008       1.44105083E-08
   2.76300001       1.46714552E-08
   2.76399994       1.49369690E-08
   2.76500010       1.52071191E-08
   2.76600003       1.54819748E-08
   2.76699996       1.57616071E-08
   2.76799989       1.60460907E-08
   2.76900005       1.63354894E-08
   2.76999998       1.66298815E-08
   2.77099991       1.69293308E-08
   2.77200007       1.72339121E-08
   2.77300000       1.75436963E-08
   2.77399993       1.78587598E-08
   2.77500010       1.81791719E-08
   2.77600002       1.85050109E-08
   2.77699995       1.88363529E-08
   2.77800012       1.91732763E-08
   2.77900004       1.95158592E-08
   2.77999997       1.98641779E-08
   2.78099990       2.02183106E-08
   2.78200006       2.05783390E-08
   2.78299999       2.09443396E-08
   2.78399992       2.13163993E-08
   2.78500009       2.16946017E-08
   2.78600001       2.20790302E-08
   2.78699994       2.24697754E-08
   2.78800011       2.28669208E-08
   2.78900003       2.32705517E-08
   2.78999996       2.36807551E-08
   2.79099989       2.40976217E-08
   2.79200006       2.45212384E-08
   2.79299998       2.49516940E-08
   2.79399991       2.53890828E-08
   2.79500008       2.58334971E-08
   2.79600000       2.62850310E-08
   2.79699993       2.67437752E-08
   2.79800010       2.72098255E-08
   2.79900002       2.76832743E-08
   2.79999995       2.81642158E-08
   2.80100012       2.86527460E-08
   2.80200005       2.91489624E-08
   2.80299997       2.96529699E-08
   2.80399990       3.01648697E-08
   2.80500007       3.06847703E-08
   2.80599999       3.12127781E-08
   2.80699992       3.17490034E-08
   2.80800009       3.22935492E-08
   2.80900002       3.28465291E-08
   2.80999994       3.34080532E-08
   2.81100011       3.39782318E-08
   2.81200004       3.45571927E-08
   2.81299996       3.51450602E-08
   2.81399989       3.57419587E-08
   2.81500006       3.63480055E-08
   2.81599998       3.69633320E-08
   2.81699991       3.75880660E-08
   2.81800008       3.82223249E-08
   2.81900001       3.88662400E-08
   2.81999993       3.95199393E-08
   2.82100010       4.01835649E-08
   2.82200003       4.08572447E-08
   2.82299995       4.15411279E-08
   2.82399988       4.22353601E-08
   2.82500005       4.29400764E-08
   2.82599998       4.36554117E-08
   2.82699990       4.43815118E-08
   2.82800007       4.51185045E-08
   2.82900000       4.58665319E-08
   2.82999992       4.66257468E-08
   2.83100009       4.73962913E-08
   2.83200002       4.81783182E-08
   2.83299994       4.89719909E-08
   2.83400011       4.97774586E-08
   2.83500004       5.05948741E-08
   2.83599997       5.14243936E-08
   2.83699989       5.22661736E-08
   2.83800006       5.31203703E-08
   2.83899999       5.39871579E-08
   2.83999991       5.48666996E-08
   2.84100008       5.57591768E-08
   2.84200001       5.66647742E-08
   2.84299994       5.75836623E-08
   2.84400010       5.85160258E-08
   2.84500003       5.94620353E-08
   2.84599996       6.04218755E-08
   2.84699988       6.13957241E-08
   2.84800005       6.23837622E-08
   2.84899998       6.33861816E-08
   2.84999990       6.44031886E-08
   2.85100007       6.54349606E-08
   2.85200000       6.64817037E-08
   2.85299993       6.75436311E-08
   2.85400009       6.86209134E-08
   2.85500002       6.97137494E-08
   2.85599995       7.08223453E-08