   2.00000000       0.00000000    
   2.00099993       0.00000000    
   2.00200009       0.00000000    
   2.00300002       0.00000000    
   2.00399995       0.00000000    
   2.00500011       0.00000000    
   2.00600004       0.00000000    
   2.00699997       0.00000000    
   2.00799990       0.00000000    
   2.00900006      -4.20389539E-45
   2.00999999       1.11959487E-37
   2.01099992       4.67882078E-37
   2.01200008      -5.29972353E-36
   2.01300001      -5.60697432E-35
   2.01399994      -2.65994673E-34
   2.01500010      -8.46523349E-34
   2.01600003      -2.05735315E-33
   2.01699996      -4.05005338E-33
   2.01799989      -6.57717007E-33
   2.01900005      -8.56137221E-33
   2.01999998      -7.67911595E-33
   2.02099991      -4.93228062E-34
   2.02200007       1.61123424E-32
   2.02300000       4.21308343E-32
   2.02399993       7.18054309E-32
   2.02500010       9.37685320E-32
   2.02600002       9.50823938E-32
   2.02699995       6.63828755E-32
   2.02800012       2.65106045E-33
   2.02900004      -1.02257676E-31
   2.02999997      -2.58980754E-31
   2.03099990      -4.66981682E-31
   2.03200006      -6.70228887E-31
   2.03299999      -7.06818923E-31
   2.03399992      -3.17633291E-31
   2.03500009       7.14353089E-31
   2.03600001       2.30034333E-30
   2.03699994       3.81122013E-30
   2.03800011       4.12291271E-30
   2.03900003       2.08318720E-30
   2.03999996      -2.78210267E-30
   2.04099989      -9.78501434E-30
   2.04200006      -1.71566323E-29
   2.04299998      -2.24914823E-29
   2.04399991      -2.29252740E-29
   2.04500008      -1.48062680E-29
   2.04600000       6.20624267E-30
   2.04699993       4.29255178E-29
   2.04800010       9.17517299E-29
   2.04900002       1.37612232E-28
   2.04999995       1.53828069E-28
   2.05100012       1.10935406E-28
   2.05200005      -7.15506823E-30
   2.05299997      -1.87987085E-28
   2.05399990      -3.86504553E-28
   2.05500007      -5.36138259E-28
   2.05599999      -5.69105028E-28
   2.05699992      -4.34967282E-28
   2.05800009      -1.11714854E-28
   2.05900002       3.85748818E-28
   2.05999994       9.91110898E-28
   2.06100011       1.56870769E-27
   2.06200004       1.91335998E-27
   2.06299996       1.79484114E-27
   2.06399989       1.05080548E-27
   2.06500006      -3.10625489E-28
   2.06599998      -2.06558644E-27
   2.06699991      -3.83356895E-27
   2.06800008      -5.22015569E-27
   2.06900001      -5.95107731E-27
   2.06999993      -5.89101988E-27
   2.07100010      -4.91217099E-27
   2.07200003      -2.69796747E-27
   2.07299995       1.34787074E-27
   2.07399988       7.93806154E-27
   2.07500005       1.74592159E-26
   2.07599998       2.93759321E-26
   2.07699990       4.16982075E-26
   2.07800007       5.07273708E-26
   2.07900000       5.12410672E-26
   2.07999992       3.72278283E-26
   2.08100009       3.23590551E-27
   2.08200002      -5.37216433E-26
   2.08299994      -1.32047797E-25
   2.08400011      -2.23966042E-25
   2.08500004      -3.15439123E-25
   2.08599997      -3.88362362E-25
   2.08699989      -4.24905875E-25
   2.08800006      -4.12588009E-25
   2.08899999      -3.47631181E-25
   2.08999991      -2.34185883E-25
   2.09100008      -7.85320276E-26
   2.09200001       1.19953696E-25
   2.09299994       3.76592360E-25
   2.09400010       7.22287158E-25
   2.09500003       1.19322391E-24
   2.09599996       1.80916394E-24
   2.09699988       2.54559399E-24
   2.09800005       3.30977834E-24
   2.09899998       3.93258521E-24
   2.09999990       4.18540645E-24
   2.10100007       3.82471637E-24
   2.10200000       2.65762171E-24
   2.10299993       6.13175665E-25
   2.10400009      -2.20068665E-24
   2.10500002      -5.47391844E-24
   2.10599995      -8.71761193E-24
   2.10700011      -1.13361024E-23
   2.10800004      -1.27391672E-23
   2.10899997      -1.24766604E-23
   2.10999990      -1.03725514E-23
   2.11100006      -6.63299414E-24
   2.11199999      -1.90204797E-24
   2.11299992       2.76186711E-24
   2.11400008       6.01412526E-24
   2.11500001       6.47321273E-24
   2.11599994       3.08576196E-24
   2.11700010      -4.43622556E-24
   2.11800003      -1.51984971E-23
   2.11899996      -2.68648096E-23
   2.11999989      -3.57078804E-23
   2.12100005      -3.70923060E-23
   2.12199998      -2.64211779E-23
   2.12299991      -4.43064467E-25
   2.12400007       4.13295903E-23
   2.12500000       9.54512797E-23
   2.12599993       1.54018617E-22
   2.12700009       2.05120029E-22
   2.12800002       2.34427524E-22
   2.12899995       2.27863167E-22
   2.13000011       1.75007075E-22
   2.13100004       7.26575099E-23
   2.13199997      -7.22450429E-23
   2.13299990      -2.41211981E-22
   2.13400006      -4.05134121E-22
   2.13499999      -5.28075556E-22
   2.13599992      -5.73937077E-22
   2.13700008      -5.15248350E-22
   2.13800001      -3.42502680E-22
   2.13899994      -7.17254297E-23
   2.14000010       2.52360945E-22
   2.14100003       5.59878995E-22
   2.14199996       7.67216935E-22
   2.14299989       7.95634254E-22
   2.14400005       5.94104905E-22
   2.14499998       1.61364502E-22
   2.14599991      -4.39108657E-22
   2.14700007      -1.07725492E-21
   2.14800000      -1.57187278E-21
   2.14899993      -1.72395345E-21
   2.15000010      -1.36404032E-21
   2.15100002      -4.05385017E-22
   2.15199995       1.10843020E-21
   2.15300012       2.97347721E-21
   2.15400004       4.82305630E-21
   2.15499997       6.15805512E-21
   2.15599990       6.40876920E-21
   2.15700006       5.02004807E-21
   2.15799999       1.54627360E-21
   2.15899992      -4.25986464E-21
   2.16000009      -1.23797458E-20
   2.16100001      -2.24927162E-20
   2.16199994      -3.39748927E-20
   2.16300011      -4.59285444E-20
   2.16400003      -5.72311402E-20
   2.16499996      -6.65895903E-20
   2.16599989      -7.25856157E-20
   2.16700006      -7.37030333E-20
   2.16799998      -6.83362144E-20
   2.16899991      -5.47895422E-20
   2.17000008      -3.12885493E-20
   2.17100000       3.96847088E-21
   2.17199993       5.26866617E-20
   2.17300010       1.16250645E-19
   2.17400002       1.95385567E-19
   2.17499995       2.89709308E-19
   2.17600012       3.97209545E-19
   2.17700005       5.13709973E-19
   2.17799997       6.32418352E-19
   2.17899990       7.43667631E-19
   2.18000007       8.34965313E-19
   2.18099999       8.91451202E-19
   2.18199992       8.96825394E-19
   2.18300009       8.34746058E-19
   2.18400002       6.90629430E-19
   2.18499994       4.53700087E-19
   2.18600011       1.19074872E-19
   2.18700004      -3.10386031E-19
   2.18799996      -8.22736119E-19
   2.18899989      -1.39635491E-18
   2.19000006      -2.00029209E-18
   2.19099998      -2.59560942E-18
   2.19199991      -3.13767267E-18
   2.19300008      -3.57921175E-18
   2.19400001      -3.87388616E-18
   2.19499993      -3.98002253E-18
   2.19600010      -3.86419160E-18
   2.19700003      -3.50432792E-18
   2.19799995      -2.89217001E-18
   2.19899988      -2.03487051E-18
   2.20000005      -9.55722412E-19
   2.20099998       3.06022938E-19
   2.20199990       1.69622980E-18
   2.20300007       3.14783251E-18
   2.20400000       4.58365800E-18
   2.20499992       5.92008201E-18
   2.20600009       7.07145456E-18
   2.20700002       7.95511589E-18
   2.20799994       8.49675541E-18
   2.20900011       8.63573003E-18
   2.21000004       8.32989902E-18
   2.21099997       7.55952173E-18
   2.21199989       6.32980897E-18
   2.21300006       4.67185861E-18
   2.21399999       2.64188149E-18
   2.21499991       3.18785198E-19
   2.21600008      -2.19962483E-18
   2.21700001      -4.80148981E-18
   2.21799994      -7.36639325E-18
   2.21900010      -9.77112806E-18
   2.22000003      -1.18954164E-17
   2.22099996      -1.36272836E-17
   2.22199988      -1.48678717E-17
   2.22300005      -1.55354478E-17
   2.22399998      -1.55684110E-17
   2.22499990      -1.49270945E-17
   2.22600007      -1.35942047E-17
   2.22700000      -1.15739004E-17
   2.22799993      -8.88964552E-18
   2.22900009      -5.58122375E-18
   2.23000002      -1.70151476E-18
   2.23099995       2.68620824E-18
   2.23200011       7.50965184E-18
   2.23300004       1.26868760E-17
   2.23399997       1.81232973E-17
   2.23499990       2.37064124E-17
   2.23600006       2.92989160E-17
   2.23699999       3.47313651E-17
   2.23799992       3.97960034E-17
   2.23900008       4.42434657E-17
   2.24000001       4.77839939E-17
   2.24099994       5.00942730E-17
   2.24200010       5.08304008E-17
   2.24300003       4.96465499E-17
   2.24399996       4.62182171E-17
   2.24499989       4.02683235E-17
   2.24600005       3.15940146E-17
   2.24699998       2.00922369E-17
   2.24799991       5.78216536E-18
   2.24900007      -1.11768231E-17
   2.25000000      -3.04726125E-17
   2.25099993      -5.16339009E-17
   2.25200009      -7.40303553E-17
   2.25300002      -9.68799823E-17
   2.25399995      -1.19264370E-16
   2.25500011      -1.40152639E-16
   2.25600004      -1.58434681E-16
   2.25699997      -1.72963903E-16
   2.25799990      -1.82609014E-16
   2.25900006      -1.86313274E-16
   2.25999999      -1.83158672E-16
   2.26099992      -1.72431397E-16
   2.26200008      -1.53684215E-16
   2.26300001      -1.26790813E-16
   2.26399994      -9.19876788E-17
   2.26500010      -4.98988929E-17
   2.26600003      -1.54078933E-18
   2.26699996       5.16956615E-17
   2.26799989       1.08085308E-16
   2.26900005       1.65631019E-16
   2.26999998       2.22144925E-16
   2.27099991       2.75344630E-16
   2.27200007       3.22958416E-16
   2.27300000       3.62833366E-16
   2.27399993       3.93039222E-16
   2.27500010       4.11960827E-16
   2.27600002       4.18373051E-16
   2.27699995       4.11493582E-16
   2.27800012       3.91010552E-16
   2.27900004       3.57084500E-16
   2.27999997       3.10327461E-16
   2.28099990       2.51762782E-16
   2.28200006       1.82772187E-16
   2.28299999       1.05037002E-16
   2.28399992       2.04797959E-17
   2.28500009      -6.87886706E-17
   2.28600001      -1.60514517E-16
   2.28699994      -2.52338447E-16
   2.28800011      -3.41829199E-16
   2.28900003      -4.26517803E-16
   2.28999996      -5.03938599E-16
   2.29099989      -5.71681806E-16
   2.29200006      -6.27460302E-16
   2.29299998      -6.69189645E-16
   2.29399991      -6.95077089E-16
   2.29500008      -7.03709943E-16
   2.29600000      -6.94135136E-16
   2.29699993      -6.65916445E-16
   2.29800010      -6.19160914E-16
   2.29900002      -5.54505725E-16
   2.29999995      -4.73064036E-16
   2.30100012      -3.76330677E-16
   2.30200005      -2.66057125E-16
   2.30299997      -1.44108799E-16
   2.30399990      -1.23244270E-17
   2.30500007       1.27599703E-16
   2.30599999       2.74175142E-16
   2.30699992       4.26112418E-16
   2.30800009       5.82218367E-16
   2.30900002       7.41189298E-16
   2.30999994       9.01304042E-16
   2.31100011       1.06003664E-15
   2.31200004       1.21363219E-15
   2.31299996       1.35670548E-15
   2.31399989       1.48194396E-15
   2.31500006       1.58000581E-15
   2.31599998       1.63970353E-15
   2.31699991       1.64855312E-15
   2.31800008       1.59373897E-15
   2.31900001       1.46350014E-15
   2.31999993       1.24888412E-15
   2.32100010       9.45741191E-16
   2.32200003       5.56764709E-16
   2.32299995       9.33069525E-17
   2.32399988      -4.23342144E-16
   2.32500005      -9.61552543E-16
   2.32599998      -1.48014550E-15
   2.32699990      -1.93062822E-15
   2.32800007      -2.26100326E-15
   2.32900000      -2.42111472E-15
   2.32999992      -2.36928350E-15
   2.33100009      -2.07975324E-15
   2.33200002      -1.55023038E-15
   2.33299994      -8.08607774E-16
   2.33400011       8.21973742E-17
   2.33500004       1.02239608E-15
   2.33599997       1.87751693E-15
   2.33699989       2.48546318E-15
   2.33800006       2.66890531E-15
   2.33899999       2.25298101E-15
   2.33999991       1.08764600E-15
   2.34100008      -9.26657221E-16
   2.34200001      -3.81206034E-15
   2.34299994      -7.48772721E-15
   2.34400010      -1.17488865E-14
   2.34500003      -1.62538897E-14
   2.34599996      -2.05226817E-14
   2.34699988      -2.39498430E-14
   2.34800005      -2.58344880E-14
   2.34899998      -2.54284847E-14
   2.34999990      -2.20029039E-14
   2.35100007      -1.49312850E-14
   2.35200000      -3.78652145E-15
   2.35299993       1.15533202E-14
   2.35400009       3.07963460E-14
   2.35500002       5.31325438E-14
   2.35599995       7.71415877E-14
   2.35700011       1.00720613E-13
   2.35800004       1.21039057E-13
   2.35899997       1.34526762E-13
   2.35999990       1.36899295E-13
   2.36100006       1.23222680E-13
   2.36199999       8.80165556E-14
   2.36299992       2.53927111E-14
   2.36400008      -7.07775784E-14
   2.36500001      -2.06675050E-13
   2.36599994      -3.88333734E-13
   2.36700010      -6.21442676E-13
   2.36800003      -9.11159819E-13
   2.36899996      -1.26194855E-12
   2.36999989      -1.67744757E-12
   2.37100005      -2.16037843E-12
   2.37199998      -2.71249950E-12
   2.37299991      -3.33460191E-12
   2.37400007      -4.02655210E-12
   2.37500000      -4.78737015E-12
   2.37599993      -5.61534109E-12
   2.37700009      -6.50814689E-12
   2.37800002      -7.46300851E-12
   2.37899995      -8.47683295E-12
   2.38000011      -9.54634635E-12
   2.38100004      -1.06682172E-11
   2.38199997      -1.18391529E-11
   2.38299990      -1.30559643E-11
   2.38400006      -1.43156112E-11
   2.38499999      -1.56152209E-11
   2.38599992      -1.69520717E-11
   2.38700008      -1.83235753E-11
   2.38800001      -1.97272216E-11
   2.38899994      -2.11605386E-11
   2.39000010      -2.26210387E-11
   2.39100003      -2.41061719E-11
   2.39199996      -2.56132719E-11
   2.39299989      -2.71395354E-11
   2.39400005      -2.86819891E-11
   2.39499998      -3.02374722E-11
   2.39599991      -3.18026334E-11
   2.39700007      -3.33739390E-11
   2.39800000      -3.49476698E-11
   2.39899993      -3.65199503E-11
   2.40000010      -3.80867664E-11
   2.40100002      -3.96439756E-11
   2.40199995      -4.11873660E-11
   2.40300012      -4.27126529E-11
   2.40400004      -4.42155479E-11
   2.40499997      -4.56917663E-11
   2.40599990      -4.71370581E-11
   2.40700006      -4.85472461E-11
   2.40799999      -4.99182223E-11
   2.40899992      -5.12459901E-11
   2.41000009      -5.25266323E-11
   2.41100001      -5.37563154E-11
   2.41199994      -5.49312401E-11
   2.41300011      -5.60476353E-11
   2.41400003      -5.71016880E-11
   2.41499996      -5.80894846E-11
   2.41599989      -5.90069590E-11
   2.41700006      -5.98498473E-11
   2.41799998      -6.06136252E-11
   2.41899991      -6.12935327E-11
   2.42000008      -6.18845600E-11
   2.42100000      -6.23814680E-11
   2.42199993      -6.27788238E-11
   2.42300010      -6.30711108E-11
   2.42400002      -6.32527641E-11
   2.42499995      -6.33182881E-11
   2.42600012      -6.32623676E-11
   2.42700005      -6.30798677E-11
   2.42799997      -6.27659730E-11
   2.42899990      -6.23161453E-11
   2.43000007      -6.17261520E-11
   2.43099999      -6.09919962E-11
   2.43199992      -6.01098407E-11
   2.43300009      -5.90759663E-11
   2.43400002      -5.78865497E-11
   2.43499994      -5.65376565E-11
   2.43600011      -5.50250609E-11
   2.43700004      -5.33442110E-11
   2.43799996      -5.14901559E-11
   2.43899989      -4.94575492E-11
   2.44000006      -4.72406697E-11
   2.44099998      -4.48335084E-11
   2.44199991      -4.22298377E-11
   2.44300008      -3.94233535E-11
   2.44400001      -3.64077622E-11
   2.44499993      -3.31769265E-11
   2.44600010      -2.97249447E-11
   2.44700003      -2.60462138E-11
   2.44799995      -2.21354619E-11
   2.44899988      -1.79877380E-11
   2.45000005      -1.35983568E-11
   2.45099998      -8.96283135E-12
   2.45199990      -4.07678058E-12
   2.45300007       1.06416959E-12
   2.45400000       6.46447349E-12
   2.45499992       1.21287312E-11
   2.45600009       1.80617327E-11
   2.45700002       2.42684536E-11
   2.45799994       3.07540347E-11
   2.45900011       3.75237341E-11
   2.46000004       4.45828478E-11
   2.46099997       5.19366460E-11
   2.46199989       5.95903049E-11
   2.46300006       6.75488901E-11
   2.46399999       7.58172969E-11
   2.46499991       8.44003131E-11
   2.46600008       9.33026295E-11
   2.46700001       1.02528923E-10
   2.46799994       1.12083912E-10
   2.46900010       1.21972488E-10
   2.47000003       1.32199793E-10
   2.47099996       1.42771212E-10
   2.47199988       1.53692489E-10
   2.47300005       1.64969635E-10
   2.47399998       1.76608922E-10
   2.47499990       1.88616747E-10
   2.47600007       2.00999606E-10
   2.47700000       2.13763882E-10
   2.47799993       2.26915889E-10
   2.47900009       2.40461706E-10
   2.48000002       2.54407218E-10
   2.48099995       2.68758044E-10
   2.48200011       2.83519791E-10
   2.48300004       2.98697955E-10
   2.48399997       3.14298226E-10
   2.48499990       3.30326544E-10
   2.48600006       3.46789208E-10
   2.48699999       3.63693131E-10
   2.48799992       3.81045695E-10
   2.48900008       3.98854921E-10
   2.49000001       4.17129331E-10
   2.49099994       4.35877751E-10
   2.49200010       4.55109256E-10
   2.49300003       4.74832895E-10
   2.49399996       4.95057606E-10
   2.49499989       5.15791909E-10
   2.49600005       5.37044020E-10
   2.49699998       5.58821434E-10
   2.49799991       5.81131365E-10
   2.49900007       6.03980366E-10
   2.50000000       6.27374819E-10
   2.50099993       6.51320997E-10
   2.50200009       6.75825396E-10
   2.50300002       7.00894620E-10
   2.50399995       7.26536165E-10
   2.50500011       7.52757856E-10
   2.50600004       7.79568188E-10
   2.50699997       8.06976375E-10
   2.50799990       8.34992075E-10
   2.50900006       8.63625338E-10
   2.50999999       8.92886098E-10
   2.51099992       9.22784293E-10
   2.51200008       9.53329748E-10
   2.51300001       9.84531789E-10
   2.51399994       1.01639930E-09
   2.51500010       1.04894071E-09
   2.51600003       1.08216436E-09
   2.51699996       1.11607812E-09
   2.51799989       1.15068999E-09
   2.51900005       1.18600851E-09
   2.51999998       1.22204302E-09
   2.52099991       1.25880351E-09
   2.52200007       1.29630162E-09
   2.52300000       1.33455003E-09
   2.52399993       1.37356226E-09
   2.52500010       1.41335321E-09
   2.52600002       1.45393819E-09
   2.52699995       1.49533341E-09
   2.52800012       1.53755508E-09
   2.52900004       1.58061975E-09
   2.52999997       1.62454350E-09
   2.53099990       1.66934278E-09
   2.53200006       1.71503300E-09
   2.53299999       1.76162940E-09
   2.53399992       1.80914694E-09
   2.53500009       1.85760063E-09
   2.53600001       1.90700522E-09
   2.53699994       1.95737693E-09
   2.53800011       2.00873163E-09
   2.53900003       2.06108597E-09
   2.53999996       2.11445794E-09
   2.54099989       2.16886575E-09
   2.54200006       2.22432850E-09
   2.54299998       2.28086550E-09
   2.54399991       2.33849651E-09
   2.54500008       2.39724107E-09
   2.54600000       2.45711940E-09
   2.54699993       2.51815124E-09
   2.54800010       2.58035548E-09
   2.54900002       2.64375122E-09
   2.54999995       2.70835643E-09
   2.55100012       2.77418977E-09
   2.55200005       2.84126855E-09
   2.55299997       2.90961211E-09
   2.55399990       2.97923863E-09
   2.55500007       3.05016856E-09
   2.55599999       3.12242165E-09
   2.55699992       3.19601945E-09
   2.55800009       3.27098459E-09
   2.55900002       3.34733996E-09
   2.55999994       3.42510931E-09
   2.56100011       3.50431728E-09
   2.56200004       3.58498875E-09
   2.56299996       3.66714947E-09
   2.56399989       3.75082543E-09
   2.56500006       3.83604304E-09
   2.56599998       3.92283006E-09
   2.56699991       4.01121403E-09
   2.56800008       4.10122381E-09
   2.56900001       4.19288826E-09
   2.56999993       4.28623670E-09
   2.57100010       4.38130154E-09
   2.57200003       4.47811388E-09
   2.57299995       4.57670613E-09
   2.57399988       4.67711248E-09
   2.57500005       4.77936668E-09
   2.57599998       4.88350249E-09
   2.57699990       4.98955544E-09
   2.57800007       5.09755704E-09
   2.57900000       5.20754151E-09
   2.57999992       5.31954170E-09
   2.58100009       5.43358825E-09
   2.58200002       5.54971402E-09
   2.58299994       5.66795055E-09
   2.58400011       5.78832893E-09
   2.58500004       5.91087934E-09
   2.58599997       6.03563421E-09
   2.58699989       6.16262463E-09
   2.58800006       6.29188257E-09
   2.58899999       6.42344133E-09
   2.58999991       6.55733512E-09
   2.59100008       6.69359768E-09
   2.59200001       6.83226409E-09
   2.59299994       6.97337033E-09
   2.59400010       7.11695192E-09
   2.59500003       7.26304394E-09
   2.59599996       7.41168460E-09
   2.59699988       7.56291207E-09
   2.59800005       7.71676323E-09
   2.59899998       7.87327803E-09
   2.59999990       8.03249733E-09
   2.60100007       8.19446289E-09
   2.60200000       8.35921998E-09
   2.60299993       8.52681481E-09
   2.60400009       8.69729977E-09
   2.60500002       8.87072638E-09
   2.60599995       9.04714792E-09
   2.60700011       9.22662124E-09
   2.60800004       9.40920497E-09
   2.60899997       9.59496038E-09
   2.60999990       9.78394876E-09
   2.61100006       9.97623495E-09
   2.61199999       1.01718820E-08
   2.61299992       1.03709565E-08
   2.61400008       1.05735287E-08
   2.61500001       1.07796634E-08
   2.61599994       1.09894325E-08
   2.61700010       1.12029062E-08
   2.61800003       1.14201546E-08
   2.61899996       1.16412497E-08
   2.61999989       1.18662680E-08
   2.62100005       1.20952839E-08
   2.62199998       1.23283739E-08
   2.62299991       1.25656117E-08
   2.62400007       1.28070763E-08
   2.62500000       1.30528415E-08
   2.62599993       1.33029845E-08
   2.62700009       1.35575817E-08
   2.62800002       1.38167087E-08
   2.62899995       1.40804444E-08
   2.63000011       1.43488661E-08
   2.63100004       1.46220493E-08
   2.63199997       1.49000767E-08
   2.63299990       1.51830246E-08
   2.63400006       1.54709756E-08
   2.63499999       1.57640105E-08
   2.63599992       1.60622093E-08
   2.63700008       1.63656555E-08
   2.63800001       1.66744325E-08
   2.63899994       1.69886256E-08
   2.64000010       1.73083183E-08
   2.64100003       1.76335906E-08
   2.64199996       1.79645259E-08
   2.64299989       1.83012077E-08
   2.64400005       1.86437159E-08
   2.64499998       1.89921305E-08
   2.64599991       1.93465350E-08
   2.64700007       1.97070040E-08
   2.64800000       2.00736228E-08
   2.64899993       2.04464712E-08
   2.65000010       2.08256292E-08
   2.65100002       2.12111839E-08
   2.65199995       2.16032205E-08
   2.65300012       2.20018244E-08
   2.65400004       2.24070824E-08
   2.65499997       2.28190764E-08
   2.65599990       2.32378934E-08
   2.65700006       2.36636186E-08
   2.65799999       2.40963356E-08
   2.65899992       2.45361296E-08
   2.66000009       2.49830858E-08
   2.66100001       2.54372896E-08
   2.66199994       2.58988262E-08
   2.66300011       2.63677773E-08
   2.66400003       2.68442282E-08
   2.66499996       2.73282694E-08
   2.66599989       2.78199881E-08
   2.66700006       2.83194783E-08
   2.66799998       2.88268396E-08
   2.66899991       2.93421749E-08
   2.67000008       2.98655856E-08
   2.67100000       3.03971888E-08
   2.67199993       3.09370840E-08
   2.67300010       3.14853956E-08
   2.67400002       3.20422338E-08
   2.67499995       3.26077298E-08
   2.67600012       3.31820154E-08
   2.67700005       3.37652253E-08
   2.67799997       3.43575017E-08
   2.67899990       3.49589904E-08
   2.68000007       3.55698546E-08
   2.68099999       3.61902472E-08
   2.68199992       3.68203388E-08
   2.68300009       3.74603246E-08
   2.68400002       3.81103824E-08
   2.68499994       3.87707217E-08
   2.68600011       3.94415451E-08
   2.68700004       4.01230693E-08
   2.68799996       4.08155110E-08
   2.68899989       4.15190939E-08
   2.69000006       4.22340456E-08
   2.69099998       4.29606004E-08
   2.69199991       4.36990071E-08
   2.69300008       4.44495072E-08
   2.69400001       4.52123565E-08
   2.69499993       4.59878073E-08
   2.69600010       4.67760977E-08
   2.69700003       4.75774868E-08
   2.69799995       4.83922307E-08
   2.69899988       4.92205920E-08
   2.70000005       5.00628268E-08
   2.70099998       5.09192049E-08
   2.70199990       5.17899892E-08
   2.70300007       5.26754498E-08
   2.70400000       5.35758531E-08
   2.70499992       5.44914727E-08
   2.70600009       5.54225714E-08
   2.70700002       5.63694229E-08
   2.70799994       5.73322936E-08
   2.70900011       5.83114712E-08
   2.71000004       5.93072258E-08
   2.71099997       6.03198416E-08
   2.71199989       6.13496027E-08
   2.71300006       6.23967935E-08
   2.71399999       6.34617265E-08
   2.71499991       6.45447003E-08
   2.71600008       6.56459989E-08
   2.71700001       6.67659492E-08
   2.71799994       6.79048568E-08
   2.71900010       6.90630699E-08
   2.72000003       7.02409011E-08
   2.72099996       7.14386914E-08
   2.72199988       7.26567890E-08
   2.72300005       7.38955350E-08
   2.72399998       7.51552633E-08
   2.72499990       7.64363151E-08
   2.72600007       7.77390383E-08
   2.72700000       7.90637955E-08
   2.72799993       8.04109419E-08
   2.72900009       8.17808612E-08
   2.73000002       8.31739015E-08
   2.73099995       8.45904466E-08
   2.73200011       8.60308447E-08
   2.73300004       8.74954651E-08
   2.73399997       8.89846987E-08
   2.73499990       9.04989221E-08
   2.73600006       9.20385403E-08
   2.73699999       9.36039513E-08
   2.73799992       9.51955599E-08
   2.73900008       9.68137996E-08
   2.74000001       9.84590613E-08
   2.74099994       1.00131778E-07
   2.74200010       1.01832370E-07
   2.74300003       1.03561256E-07
   2.74399996       1.05318883E-07
   2.74499989       1.07105713E-07
   2.74600005       1.08922180E-07
   2.74699998       1.10768745E-07
   2.74799991       1.12645871E-07
   2.74900007       1.14553998E-07
   2.75000000       1.16493581E-07
   2.75099993       1.18465046E-07
   2.75200009       1.20468826E-07
   2.75300002       1.22505355E-07
   2.75399995       1.24575095E-07
   2.75500011       1.26678472E-07
   2.75600004       1.28815870E-07
   2.75699997       1.30987743E-07
   2.75799990       1.33194462E-07
   2.75900006       1.35436409E-07
   2.75999999       1.37713954E-07
   2.76099992       1.40027453E-07
   2.76200008       1.42377274E-07
   2.76300001       1.44763789E-07
   2.76399994       1.47187322E-07
   2.76500010       1.49648230E-07
   2.76600003       1.52146853E-07
   2.76699996       1.54683491E-07
   2.76799989       1.57258427E-07
   2.76900005       1.59871973E-07
   2.76999998       1.62524472E-07
   2.77099991       1.65216193E-07
   2.77200007       1.67947505E-07
   2.77300000       1.70718721E-07
   2.77399993       1.73530154E-07
   2.77500010       1.76382159E-07
   2.77600002       1.79275020E-07
   2.77699995       1.82209106E-07
   2.77800012       1.85184760E-07
   2.77900004       1.88202293E-07
   2.77999997       1.91262117E-07
   2.78099990       1.94364588E-07
   2.78200006       1.97510076E-07
   2.78299999       2.00698949E-07
   2.78399992       2.03931577E-07
   2.78500009       2.07208288E-07
   2.78600001       2.10529464E-07
   2.78699994       2.13895461E-07
   2.78800011       2.17306663E-07
   2.78900003       2.20763411E-07
   2.78999996       2.24266117E-07
   2.79099989       2.27815150E-07
   2.79200006       2.31410937E-07
   2.79299998       2.35053832E-07
   2.79399991       2.38744235E-07
   2.79500008       2.42482571E-07
   2.79600000       2.46269195E-07
   2.79699993       2.50104421E-07
   2.79800010       2.53988730E-07
   2.79900002       2.57922636E-07
   2.79999995       2.61906507E-07
   2.80100012       2.65940827E-07
   2.80200005       2.70026135E-07
   2.80299997       2.74162858E-07
   2.80399990       2.78351564E-07
   2.80500007       2.82592708E-07
   2.80599999       2.86886831E-07
   2.80699992       2.91234528E-07
   2.80800009       2.95636340E-07
   2.80900002       3.00092864E-07
   2.80999994       3.04604782E-07
   2.81100011       3.09172691E-07
   2.81200004       3.13797159E-07
   2.81299996       3.18478840E-07
   2.81399989       3.23218302E-07
   2.81500006       3.28016171E-07
   2.81599998       3.32873128E-07
   2.81699991       3.37789800E-07
   2.81800008       3.42766896E-07
   2.81900001       3.47805070E-07
   2.81999993       3.52905005E-07
   2.82100010       3.58067354E-07
   2.82200003       3.63292827E-07
   2.82299995       3.68582050E-07
   2.82399988       3.73935677E-07
   2.82500005       3.79354418E-07
   2.82599998       3.84839012E-07
   2.82699990       3.90390198E-07
   2.82800007       3.96008772E-07
   2.82900000       4.01695502E-07
   2.82999992       4.07451097E-07
   2.83100009       4.13276268E-07
   2.83200002       4.19171840E-07
   2.83299994       4.25138580E-07
   2.83400011       4.31177284E-07
   2.83500004       4.37288890E-07
   2.83599997       4.43474192E-07
   2.83699989       4.49734188E-07
   2.83800006       4.56069699E-07
   2.83899999       4.62481523E-07
   2.83999991       4.68970626E-07
   2.84100008       4.75537774E-07
   2.84200001       4.82183907E-07
   2.84299994       4.88909961E-07
   2.84400010       4.95716790E-07
   2.84500003       5.02605417E-07
   2.84599996       5.09576807E-07
   2.84699988       5.16631872E-07
   2.84800005       5.23771575E-07
   2.84899998       5.30996772E-07
   2.84999990       5.38308313E-07
   2.85100007       5.45707110E-07
   2.85200000       5.53194241E-07
   2.85299993       5.60770616E-07
   2.85400009       5.68437429E-07
   2.85500002       5.76195646E-07
   2.85599995       5.84046290E-07