   2.00000000       0.00000000    
   2.00099993       0.00000000    
   2.00200009       0.00000000    
   2.00300002       0.00000000    
   2.00399995       0.00000000    
   2.00500011       0.00000000    
   2.00600004       0.00000000    
   2.00699997       0.00000000    
   2.00799990       0.00000000    
   2.00900006       0.00000000    
   2.00999999       0.00000000    
   2.01099992       0.00000000    
   2.01200008      -2.78438005E-42
   2.01300001       2.58259307E-42
   2.01399994       2.62709831E-40
   2.01500010       1.92104847E-39
   2.01600003       6.93931968E-39
   2.01699996       1.35334309E-38
   2.01799989       8.75842089E-39
   2.01900005      -1.54324327E-38
   2.01999998       2.08132997E-38
   2.02099991       3.97944549E-37
   2.02200007       1.47958544E-36
   2.02300000       2.96736595E-36
   2.02399993       2.55788618E-36
   2.02500010      -4.86006360E-36
   2.02600002      -2.56001863E-35
   2.02699995      -6.28420428E-35
   2.02800012      -1.13382376E-34
   2.02900004      -1.71772969E-34
   2.02999997      -2.40570085E-34
   2.03099990      -3.23075737E-34
   2.03200006      -3.50066235E-34
   2.03299999      -1.22421317E-36
   2.03399992       1.52925818E-33
   2.03500009       5.59784663E-33
   2.03600001       1.36073786E-32
   2.03699994       2.55524848E-32
   2.03800011       3.76631476E-32
   2.03900003       4.00869728E-32
   2.03999996       1.66087492E-32
   2.04099989      -5.10571681E-32
   2.04200006      -1.72693638E-31
   2.04299998      -3.33725456E-31
   2.04399991      -4.79323291E-31
   2.04500008      -5.08046119E-31
   2.04600000      -2.86799228E-31
   2.04699993       3.03393070E-31
   2.04800010       1.28956094E-30
   2.04900002       2.51020123E-30
   2.04999995       3.53265167E-30
   2.05100012       3.63755956E-30
   2.05200005       1.93725832E-30
   2.05299997      -2.31207194E-30
   2.05399990      -9.19019389E-30
   2.05500007      -1.74702700E-29
   2.05599999      -2.40904195E-29
   2.05699992      -2.41352846E-29
   2.05800009      -1.17995566E-29
   2.05900002       1.73296801E-29
   2.05999994       6.27910579E-29
   2.06100011       1.15463063E-28
   2.06200004       1.55271638E-28
   2.06299996       1.52784721E-28
   2.06399989       7.68004889E-29
   2.06500006      -9.16166439E-29
   2.06599998      -3.41263279E-28
   2.06699991      -6.15465388E-28
   2.06800008      -8.08565287E-28
   2.06900001      -7.83469890E-28
   2.06999993      -4.14750795E-28
   2.07100010       3.47993874E-28
   2.07200003       1.41458717E-27
   2.07299995       2.51562235E-27
   2.07399988       3.22275044E-27
   2.07500005       3.04927230E-27
   2.07599998       1.62639372E-27
   2.07699990      -1.08591278E-27
   2.07800007      -4.62921105E-27
   2.07900000      -8.01009594E-27
   2.07999992      -9.87114978E-27
   2.08100009      -8.88549350E-27
   2.08200002      -4.30170127E-27
   2.08299994       3.52777403E-27
   2.08400011       1.28600136E-26
   2.08500004       2.07270938E-26
   2.08599997       2.36544549E-26
   2.08699989       1.88421461E-26
   2.08800006       5.49884507E-27
   2.08899999      -1.41491232E-26
   2.08999991      -3.46803869E-26
   2.09100008      -4.84745905E-26
   2.09200001      -4.78730717E-26
   2.09299994      -2.80459404E-26
   2.09400010       1.02919840E-26
   2.09500003       5.93526804E-26
   2.09599996       1.04806951E-25
   2.09699988       1.28724868E-25
   2.09800005       1.14507968E-25
   2.09899998       5.26243933E-26
   2.09999990      -5.45354088E-26
   2.10100007      -1.90359483E-25
   2.10200000      -3.25373914E-25
   2.10299993      -4.22354699E-25
   2.10400009      -4.44163893E-25
   2.10500002      -3.62421238E-25
   2.10599995      -1.64851493E-25
   2.10700011       1.40428359E-25
   2.10800004       5.24446020E-25
   2.10899997       9.40328904E-25
   2.10999990       1.32837777E-24
   2.11100006       1.62165002E-24
   2.11199999       1.75085154E-24
   2.11299992       1.64831914E-24
   2.11400008       1.25200489E-24
   2.11500001       5.11271057E-25
   2.11599994      -6.03485988E-25
   2.11700010      -2.08593598E-24
   2.11800003      -3.87364704E-24
   2.11899996      -5.82484164E-24
   2.11999989      -7.69689298E-24
   2.12100005      -9.13415889E-24
   2.12199998      -9.67494986E-24
   2.12299991      -8.78822524E-24
   2.12400007      -5.94873185E-24
   2.12500000      -7.53690676E-25
   2.12599993       6.92589583E-24
   2.12700009       1.67795921E-23
   2.12800002       2.79124295E-23
   2.12899995       3.87665308E-23
   2.13000011       4.71590547E-23
   2.13100004       5.04768175E-23
   2.13199997       4.60438673E-23
   2.13299990       3.16423879E-23
   2.13400006       6.12270092E-24
   2.13499999      -3.00010145E-23
   2.13599992      -7.41000335E-23
   2.13700008      -1.21257425E-22
   2.13800001      -1.64476603E-22
   2.13899994      -1.95320988E-22
   2.14000010      -2.04956804E-22
   2.14100003      -1.85488500E-22
   2.14199996      -1.31405155E-22
   2.14299989      -4.09141446E-23
   2.14400005       8.30632415E-23
   2.14499998       2.32408823E-22
   2.14599991       3.93931362E-22
   2.14700007       5.50077480E-22
   2.14800000       6.80112555E-22
   2.14899993       7.61593884E-22
   2.15000010       7.71964439E-22
   2.15100002       6.90193010E-22
   2.15199995       4.98530961E-22
   2.15300012       1.84656561E-22
   2.15400004      -2.55428466E-22
   2.15499997      -8.13393091E-22
   2.15599990      -1.46336762E-21
   2.15700006      -2.15593620E-21
   2.15799999      -2.81242479E-21
   2.15899992      -3.32133837E-21
   2.16000009      -3.53934630E-21
   2.16100001      -3.29937507E-21
   2.16199994      -2.42784679E-21
   2.16300011      -7.71873107E-22
   2.16400003       1.76470017E-21
   2.16499996       5.17983933E-21
   2.16599989       9.33217170E-21
   2.16700006       1.39076542E-20
   2.16799998       1.84023032E-20
   2.16899991       2.21287874E-20
   2.17000008       2.42527352E-20
   2.17100000       2.38613075E-20
   2.17199993       2.00623772E-20
   2.17300010       1.21078813E-20
   2.17400002      -4.69930525E-22
   2.17499995      -1.77247066E-20
   2.17600012      -3.91830739E-20
   2.17700005      -6.37718512E-20
   2.17799997      -8.98031346E-20
   2.17899990      -1.15031083E-19
   2.18000007      -1.36786735E-19
   2.18099999      -1.52187196E-19
   2.18199992      -1.58404635E-19
   2.18300009      -1.52969011E-19
   2.18400002      -1.34069679E-19
   2.18499994      -1.00816263E-19
   2.18600011      -5.34210914E-20
   2.18700004       6.72700998E-21
   2.18799996       7.71122906E-20
   2.18899989       1.54261416E-19
   2.19000006       2.34008542E-19
   2.19099998       3.11816847E-19
   2.19199991       3.83107176E-19
   2.19300008       4.43545153E-19
   2.19400001       4.89249932E-19
   2.19499993       5.16906044E-19
   2.19600010       5.23786118E-19
   2.19700003       5.07714671E-19
   2.19799995       4.67022296E-19
   2.19899988       4.00544970E-19
   2.20000005       3.07713747E-19
   2.20099998       1.88760057E-19
   2.20199990       4.50282681E-20
   2.20300007      -1.20647847E-19
   2.20400000      -3.03579111E-19
   2.20499992      -4.96958687E-19
   2.20600009      -6.91799064E-19
   2.20700002      -8.77140874E-19
   2.20799994      -1.04057119E-18
   2.20900011      -1.16903751E-18
   2.21000004      -1.24989079E-18
   2.21099997      -1.27203907E-18
   2.21199989      -1.22706609E-18
   2.21300006      -1.11015683E-18
   2.21399999      -9.20692450E-19
   2.21499991      -6.62423760E-19
   2.21600008      -3.43198580E-19
   2.21700001       2.57048831E-20
   2.21799994       4.30510725E-19
   2.21900010       8.55964171E-19
   2.22000003       1.28622666E-18
   2.22099996       1.70546548E-18
   2.22199988       2.09800631E-18
   2.22300005       2.44803379E-18
   2.22399998       2.73893956E-18
   2.22499990       2.95253600E-18
   2.22600007       3.06845275E-18
   2.22700000       3.06405318E-18
   2.22799993       2.91517225E-18
   2.22900009       2.59784715E-18
   2.23000002       2.09102387E-18
   2.23099995       1.37998945E-18
   2.23200011       4.60071653E-19
   2.23300004      -6.60026539E-19
   2.23399997      -1.95591095E-18
   2.23499990      -3.38679899E-18
   2.23600006      -4.89681493E-18
   2.23699999      -6.41832019E-18
   2.23799992      -7.87695394E-18
   2.23900008      -9.19768841E-18
   2.24000001      -1.03109734E-17
   2.24099994      -1.11579129E-17
   2.24200010      -1.16935322E-17
   2.24300003      -1.18875342E-17
   2.24399996      -1.17223619E-17
   2.24499989      -1.11889744E-17
   2.24600005      -1.02812520E-17
   2.24699998      -8.99033822E-18
   2.24799991      -7.30040823E-18
   2.24900007      -5.18721529E-18
   2.25000000      -2.62039217E-18
   2.25099993       4.30171374E-19
   2.25200009       3.98432015E-18
   2.25300002       8.03917564E-18
   2.25399995       1.25561153E-17
   2.25500011       1.74493998E-17
   2.25600004       2.25787170E-17
   2.25699997       2.77475520E-17
   2.25799990       3.27085975E-17
   2.25900006       3.71764580E-17
   2.25999999       4.08468867E-17
   2.26099992       4.34206559E-17
   2.26200008       4.46295274E-17
   2.26300001       4.42611177E-17
   2.26399994       4.21795971E-17
   2.26500010       3.83395203E-17
   2.26600003       3.27908920E-17
   2.26699996       2.56749186E-17
   2.26799989       1.72110196E-17
   2.26900005       7.67712365E-18
   2.26999998      -2.61386034E-18
   2.27099991      -1.33379036E-17
   2.27200007      -2.41804878E-17
   2.27300000      -3.48513228E-17
   2.27399993      -4.50912629E-17
   2.27500010      -5.46712023E-17
   2.27600002      -6.33842034E-17
   2.27699995      -7.10332550E-17
   2.27800012      -7.74182357E-17
   2.27900004      -8.23256269E-17
   2.27999997      -8.55240895E-17
   2.28099990      -8.67679706E-17
   2.28200006      -8.58093940E-17
   2.28299999      -8.24177682E-17
   2.28399992      -7.64043902E-17
   2.28500009      -6.76487098E-17
   2.28600001      -5.61225634E-17
   2.28699994      -4.19090296E-17
   2.28800011      -2.52134924E-17
   2.28900003      -6.36566312E-18
   2.28999996       1.41874925E-17
   2.29099989       3.58963663E-17
   2.29200006       5.81292176E-17
   2.29299998       8.01961265E-17
   2.29399991       1.01373889E-16
   2.29500008       1.20930404E-16
   2.29600000       1.38146905E-16
   2.29699993       1.52337076E-16
   2.29800010       1.62862929E-16
   2.29900002       1.69147119E-16
   2.29999995       1.70682155E-16
   2.30100012       1.67037888E-16
   2.30200005       1.57867989E-16
   2.30299997       1.42918652E-16
   2.30399990       1.22041129E-16
   2.30500007       9.52111553E-17
   2.30599999       6.25570095E-17
   2.30699992       2.43959121E-17
   2.30800009      -1.87234201E-17
   2.30900002      -6.59779043E-17
   2.30999994      -1.16235089E-16
   2.31100011      -1.68036739E-16
   2.31200004      -2.19612165E-16
   2.31299996      -2.68930578E-16
   2.31399989      -3.13798390E-16
   2.31500006      -3.51999947E-16
   2.31599998      -3.81474496E-16
   2.31699991      -4.00511879E-16
   2.31800008      -4.07945282E-16
   2.31900001      -4.03313520E-16
   2.31999993      -3.86965493E-16
   2.32100010      -3.60082494E-16
   2.32200003      -3.24601898E-16
   2.32299995      -2.83034868E-16
   2.32399988      -2.38183812E-16
   2.32500005      -1.92777155E-16
   2.32599998      -1.49050707E-16
   2.32699990      -1.08313326E-16
   2.32800007      -7.05440604E-17
   2.32900000      -3.40692136E-17
   2.32999992       4.62910413E-18
   2.33100009       5.09241733E-17
   2.33200002       1.11831391E-16
   2.33299994       1.95538271E-16
   2.33400011       3.10657036E-16
   2.33500004       4.65204100E-16
   2.33599997       6.65335592E-16
   2.33699989       9.13907363E-16
   2.33800006       1.20896451E-15
   2.33899999       1.54230194E-15
   2.33999991       1.89828109E-15
   2.34100008       2.25310700E-15
   2.34200001       2.57478365E-15
   2.34299994       2.82395639E-15
   2.34400010       2.95580046E-15
   2.34500003       2.92304273E-15
   2.34599996       2.68011050E-15
   2.34699988       2.18827531E-15
   2.34800005       1.42150573E-15
   2.34899998       3.72636343E-16
   2.34999990      -9.40717226E-16
   2.35100007      -2.47110470E-15
   2.35200000      -4.13776908E-15
   2.35299993      -5.82541573E-15
   2.35400009      -7.38582745E-15
   2.35500002      -8.64284806E-15
   2.35599995      -9.40088241E-15
   2.35700011      -9.45697124E-15
   2.35800004      -8.61596154E-15
   2.35899997      -6.70828198E-15
   2.35999990      -3.60921078E-15
   2.36100006       7.41388139E-16
   2.36199999       6.32024899E-15
   2.36299992       1.30042105E-14
   2.36400008       2.05571085E-14
   2.36500001       2.86214432E-14
   2.36599994       3.67154054E-14
   2.36700010       4.42356316E-14
   2.36800003       5.04655894E-14
   2.36899996       5.45886273E-14
   2.36999989       5.57047931E-14
   2.37100005       5.28498042E-14
   2.37199998       4.50146546E-14
   2.37299991       3.11640057E-14
   2.37400007       1.02516804E-14
   2.37500000      -1.87681901E-14
   2.37599993      -5.69354947E-14
   2.37700009      -1.05284271E-13
   2.37800002      -1.64848549E-13
   2.37899995      -2.36673284E-13
   2.38000011      -3.21829369E-13
   2.38100004      -4.21430414E-13
   2.38199997      -5.36648905E-13
   2.38299990      -6.68730804E-13
   2.38400006      -8.19004315E-13
   2.38499999      -9.88883454E-13
   2.38599992      -1.17986404E-12
   2.38700008      -1.39351291E-12
   2.38800001      -1.63144877E-12
   2.38899994      -1.89532006E-12
   2.39000010      -2.18677658E-12
   2.39100003      -2.50744369E-12
   2.39199996      -2.85889650E-12
   2.39299989      -3.24263815E-12
   2.39400005      -3.66008959E-12
   2.39499998      -4.11258354E-12
   2.39599991      -4.60137354E-12
   2.39700007      -5.12764744E-12
   2.39800000      -5.69255493E-12
   2.39899993      -6.29723487E-12
   2.40000010      -6.94285081E-12
   2.40100002      -7.63061923E-12
   2.40199995      -8.36183813E-12
   2.40300012      -9.13789790E-12
   2.40400004      -9.96029908E-12
   2.40499997      -1.08306411E-11
   2.40599990      -1.17506100E-11
   2.40700006      -1.27219572E-11
   2.40799999      -1.37464658E-11
   2.40899992      -1.48259252E-11
   2.41000009      -1.59620928E-11
   2.41100001      -1.71566771E-11
   2.41199994      -1.84113211E-11
   2.41300011      -1.97276015E-11
   2.41400003      -2.11070293E-11
   2.41499996      -2.25510877E-11
   2.41599989      -2.40612478E-11
   2.41700006      -2.56390152E-11
   2.41799998      -2.72859738E-11
   2.41899991      -2.90038063E-11
   2.42000008      -3.07943220E-11
   2.42100000      -3.26594793E-11
   2.42199993      -3.46013634E-11
   2.42300010      -3.66221879E-11
   2.42400002      -3.87242599E-11
   2.42499995      -4.09099213E-11
   2.42600012      -4.31815417E-11
   2.42700005      -4.55414526E-11
   2.42799997      -4.79919333E-11
   2.42899990      -5.05351733E-11
   2.43000007      -5.31732679E-11
   2.43099999      -5.59082294E-11
   2.43199992      -5.87419974E-11
   2.43300009      -6.16765181E-11
   2.43400002      -6.47137552E-11
   2.43499994      -6.78557349E-11
   2.43600011      -7.11046430E-11
   2.43700004      -7.44627832E-11
   2.43799996      -7.79326881E-11
   2.43899989      -8.15170709E-11
   2.44000006      -8.52188181E-11
   2.44099998      -8.90409829E-11
   2.44199991      -9.29867086E-11
   2.44300008      -9.70592218E-11
   2.44400001      -1.01261700E-10
   2.44499993      -1.05597316E-10
   2.44600010      -1.10069155E-10
   2.44700003      -1.14680210E-10
   2.44799995      -1.19433380E-10
   2.44899988      -1.24331559E-10
   2.45000005      -1.29377606E-10
   2.45099998      -1.34574463E-10
   2.45199990      -1.39925224E-10
   2.45300007      -1.45433124E-10
   2.45400000      -1.51101673E-10
   2.45499992      -1.56934687E-10
   2.45600009      -1.62936220E-10
   2.45700002      -1.69110628E-10
   2.45799994      -1.75462506E-10
   2.45900011      -1.81996640E-10
   2.46000004      -1.88717875E-10
   2.46099997      -1.95631109E-10
   2.46199989      -2.02741171E-10
   2.46300006      -2.10052767E-10
   2.46399999      -2.17570448E-10
   2.46499991      -2.25298613E-10
   2.46600008      -2.33241509E-10
   2.46700001      -2.41403314E-10
   2.46799994      -2.49788162E-10
   2.46900010      -2.58400218E-10
   2.47000003      -2.67243838E-10
   2.47099996      -2.76323575E-10
   2.47199988      -2.85644369E-10
   2.47300005      -2.95211411E-10
   2.47399998      -3.05030223E-10
   2.47499990      -3.15106607E-10
   2.47600007      -3.25446697E-10
   2.47700000      -3.36056849E-10
   2.47799993      -3.46943640E-10
   2.47900009      -3.58113705E-10
   2.48000002      -3.69573899E-10
   2.48099995      -3.81330995E-10
   2.48200011      -3.93391847E-10
   2.48300004      -4.05763395E-10
   2.48399997      -4.18452634E-10
   2.48499990      -4.31466696E-10
   2.48600006      -4.44812936E-10
   2.48699999      -4.58498822E-10
   2.48799992      -4.72532014E-10
   2.48900008      -4.86920282E-10
   2.49000001      -5.01671538E-10
   2.49099994      -5.16793719E-10
   2.49200010      -5.32294986E-10
   2.49300003      -5.48183610E-10
   2.49399996      -5.64467972E-10
   2.49499989      -5.81156512E-10
   2.49600005      -5.98257888E-10
   2.49699998      -6.15780926E-10
   2.49799991      -6.33734565E-10
   2.49900007      -6.52127852E-10
   2.50000000      -6.70970057E-10
   2.50099993      -6.90270618E-10
   2.50200009      -7.10039361E-10
   2.50300002      -7.30286387E-10
   2.50399995      -7.51022022E-10
   2.50500011      -7.72256981E-10
   2.50600004      -7.94002253E-10
   2.50699997      -8.16268886E-10
   2.50799990      -8.39068259E-10
   2.50900006      -8.62411587E-10
   2.50999999      -8.86310303E-10
   2.51099992      -9.10775455E-10
   2.51200008      -9.35818423E-10
   2.51300001      -9.61450031E-10
   2.51399994      -9.87681603E-10
   2.51500010      -1.01452402E-09
   2.51600003      -1.04198905E-09
   2.51699996      -1.07008824E-09
   2.51799989      -1.09883347E-09
   2.51900005      -1.12823761E-09
   2.51999998      -1.15831345E-09
   2.52099991      -1.18907484E-09
   2.52200007      -1.22053601E-09
   2.52300000      -1.25271182E-09
   2.52399993      -1.28561728E-09
   2.52500010      -1.31926770E-09
   2.52600002      -1.35367784E-09
   2.52699995      -1.38886269E-09
   2.52800012      -1.42483692E-09
   2.52900004      -1.46161538E-09
   2.52999997      -1.49921275E-09
   2.53099990      -1.53764446E-09
   2.53200006      -1.57692648E-09
   2.53299999      -1.61707503E-09
   2.53399992      -1.65810776E-09
   2.53500009      -1.70004244E-09
   2.53600001      -1.74289738E-09
   2.53699994      -1.78669191E-09
   2.53800011      -1.83144566E-09
   2.53900003      -1.87717886E-09
   2.53999996      -1.92391236E-09
   2.54099989      -1.97166616E-09
   2.54200006      -2.02046202E-09
   2.54299998      -2.07032014E-09
   2.54399991      -2.12126117E-09
   2.54500008      -2.17330576E-09
   2.54600000      -2.22647367E-09
   2.54699993      -2.28078489E-09
   2.54800010      -2.33625874E-09
   2.54900002      -2.39291542E-09
   2.54999995      -2.45077514E-09
   2.55100012      -2.50985921E-09
   2.55200005      -2.57018984E-09
   2.55299997      -2.63179056E-09
   2.55399990      -2.69468692E-09
   2.55500007      -2.75890466E-09
   2.55599999      -2.82447132E-09
   2.55699992      -2.89141400E-09
   2.55800009      -2.95976132E-09
   2.55900002      -3.02954151E-09
   2.55999994      -3.10078274E-09
   2.56100011      -3.17351323E-09
   2.56200004      -3.24776028E-09
   2.56299996      -3.32355055E-09
   2.56399989      -3.40091066E-09
   2.56500006      -3.47986662E-09
   2.56599998      -3.56044350E-09
   2.56699991      -3.64266795E-09
   2.56800008      -3.72656661E-09
   2.56900001      -3.81216658E-09
   2.56999993      -3.89949850E-09
   2.57100010      -3.98859390E-09
   2.57200003      -4.07948564E-09
   2.57299995      -4.17220791E-09
   2.57399988      -4.26679625E-09
   2.57500005      -4.36328484E-09
   2.57599998      -4.46170922E-09
   2.57699990      -4.56210314E-09
   2.57800007      -4.66449990E-09
   2.57900000      -4.76893369E-09
   2.57999992      -4.87543828E-09
   2.58100009      -4.98404784E-09
   2.58200002      -5.09479570E-09
   2.58299994      -5.20771515E-09
   2.58400011      -5.32284039E-09
   2.58500004      -5.44020695E-09
   2.58599997      -5.55985080E-09
   2.58699989      -5.68180880E-09
   2.58800006      -5.80612003E-09
   2.58899999      -5.93282357E-09
   2.58999991      -6.06196160E-09
   2.59100008      -6.19357587E-09
   2.59200001      -6.32770902E-09
   2.59299994      -6.46440368E-09
   2.59400010      -6.60370247E-09
   2.59500003      -6.74564671E-09
   2.59599996      -6.89027946E-09
   2.59699988      -7.03764247E-09
   2.59800005      -7.18777837E-09
   2.59899998      -7.34073025E-09
   2.59999990      -7.49654383E-09
   2.60100007      -7.65526664E-09
   2.60200000      -7.81694443E-09
   2.60299993      -7.98162869E-09
   2.60400009      -8.14936651E-09
   2.60500002      -8.32021119E-09
   2.60599995      -8.49421333E-09
   2.60700011      -8.67142536E-09
   2.60800004      -8.85189966E-09
   2.60899997      -9.03569042E-09
   2.60999990      -9.22285270E-09
   2.61100006      -9.41343981E-09
   2.61199999      -9.60750945E-09
   2.61299992      -9.80511938E-09
   2.61400008      -1.00063264E-08
   2.61500001      -1.02111919E-08
   2.61599994      -1.04197726E-08
   2.61700010      -1.06321263E-08
   2.61800003      -1.08483142E-08
   2.61899996      -1.10683960E-08
   2.61999989      -1.12924363E-08
   2.62100005      -1.15205010E-08
   2.62199998      -1.17526611E-08
   2.62299991      -1.19889858E-08
   2.62400007      -1.22295489E-08
   2.62500000      -1.24744224E-08
   2.62599993      -1.27236772E-08
   2.62700009      -1.29773854E-08
   2.62800002      -1.32356170E-08
   2.62899995      -1.34984433E-08
   2.63000011      -1.37659368E-08
   2.63100004      -1.40381733E-08
   2.63199997      -1.43152281E-08
   2.63299990      -1.45971830E-08
   2.63400006      -1.48841206E-08
   2.63499999      -1.51761252E-08
   2.63599992      -1.54732849E-08
   2.63700008      -1.57756865E-08
   2.63800001      -1.60834190E-08
   2.63899994      -1.63965694E-08
   2.64000010      -1.67152248E-08
   2.64100003      -1.70394738E-08
   2.64199996      -1.73694019E-08
   2.64299989      -1.77051032E-08
   2.64400005      -1.80466646E-08
   2.64499998      -1.83941840E-08
   2.64599991      -1.87477536E-08
   2.64700007      -1.91074641E-08
   2.64800000      -1.94734096E-08
   2.64899993      -1.98456771E-08
   2.65000010      -2.02243591E-08
   2.65100002      -2.06095461E-08
   2.65199995      -2.10013269E-08
   2.65300012      -2.13997957E-08
   2.65400004      -2.18050484E-08
   2.65499997      -2.22171757E-08
   2.65599990      -2.26362769E-08
   2.65700006      -2.30624391E-08
   2.65799999      -2.34957511E-08
   2.65899992      -2.39363036E-08
   2.66000009      -2.43841800E-08
   2.66100001      -2.48394638E-08
   2.66199994      -2.53022403E-08
   2.66300011      -2.57725858E-08
   2.66400003      -2.62505910E-08
   2.66499996      -2.67363376E-08
   2.66599989      -2.72299143E-08
   2.66700006      -2.77314118E-08
   2.66799998      -2.82409207E-08
   2.66899991      -2.87585369E-08
   2.67000008      -2.92843563E-08
   2.67100000      -2.98184837E-08
   2.67199993      -3.03610150E-08
   2.67300010      -3.09120622E-08
   2.67400002      -3.14717354E-08
   2.67499995      -3.20401554E-08
   2.67600012      -3.26174359E-08
   2.67700005      -3.32037118E-08
   2.67799997      -3.37991004E-08
   2.67899990      -3.44037332E-08
   2.68000007      -3.50177451E-08
   2.68099999      -3.56412713E-08
   2.68199992      -3.62744608E-08
   2.68300009      -3.69174771E-08
   2.68400002      -3.75704872E-08
   2.68499994      -3.82336758E-08
   2.68600011      -3.89072312E-08
   2.68700004      -3.95913347E-08
   2.68799996      -4.02861815E-08
   2.68899989      -4.09919529E-08
   2.69000006      -4.17088444E-08
   2.69099998      -4.24370512E-08
   2.69199991      -4.31767759E-08
   2.69300008      -4.39282317E-08
   2.69400001      -4.46916530E-08
   2.69499993      -4.54672637E-08
   2.69600010      -4.62552983E-08
   2.69700003      -4.70559947E-08
   2.69799995      -4.78695839E-08
   2.69899988      -4.86963003E-08
   2.70000005      -4.95363714E-08
   2.70099998      -5.03900282E-08
   2.70199990      -5.12575049E-08
   2.70300007      -5.21390398E-08
   2.70400000      -5.30348849E-08
   2.70499992      -5.39453033E-08
   2.70600009      -5.48705721E-08
   2.70700002      -5.58109754E-08
   2.70799994      -5.67668117E-08
   2.70900011      -5.77383688E-08
   2.71000004      -5.87259521E-08
   2.71099997      -5.97298424E-08
   2.71199989      -6.07503310E-08
   2.71300006      -6.17876807E-08
   2.71399999      -6.28421759E-08
   2.71499991      -6.39140936E-08
   2.71600008      -6.50037180E-08
   2.71700001      -6.61113475E-08
   2.71799994      -6.72373019E-08
   2.71900010      -6.83819223E-08
   2.72000003      -6.95455498E-08
   2.72099996      -7.07285182E-08
   2.72199988      -7.19311970E-08
   2.72300005      -7.31538989E-08
   2.72399998      -7.43969579E-08
   2.72499990      -7.56607008E-08
   2.72600007      -7.69454758E-08
   2.72700000      -7.82516025E-08
   2.72799993      -7.95794364E-08
   2.72900009      -8.09293397E-08
   2.73000002      -8.23016748E-08
   2.73099995      -8.36968113E-08
   2.73200011      -8.51151185E-08
   2.73300004      -8.65569802E-08
   2.73399997      -8.80227802E-08
   2.73499990      -8.95129162E-08
   2.73600006      -9.10277862E-08
   2.73699999      -9.25677952E-08
   2.73799992      -9.41333553E-08
   2.73900008      -9.57248929E-08
   2.74000001      -9.73428271E-08
   2.74099994      -9.89875915E-08
   2.74200010      -1.00659612E-07
   2.74300003      -1.02359337E-07
   2.74399996      -1.04087214E-07
   2.74499989      -1.05843689E-07
   2.74600005      -1.07629212E-07
   2.74699998      -1.09444237E-07
   2.74799991      -1.11289225E-07
   2.74900007      -1.13164624E-07
   2.75000000      -1.15070897E-07
   2.75099993      -1.17008504E-07
   2.75200009      -1.18977880E-07
   2.75300002      -1.20979479E-07
   2.75399995      -1.23013763E-07
   2.75500011      -1.25081215E-07
   2.75600004      -1.27182275E-07
   2.75699997      -1.29317442E-07
   2.75799990      -1.31487198E-07
   2.75900006      -1.33692041E-07
   2.75999999      -1.35932453E-07
   2.76099992      -1.38208918E-07
   2.76200008      -1.40521877E-07
   2.76300001      -1.42871784E-07
   2.76399994      -1.45259051E-07
   2.76500010      -1.47684077E-07
   2.76600003      -1.50147301E-07
   2.76699996      -1.52649150E-07
   2.76799989      -1.55190051E-07
   2.76900005      -1.57770501E-07
   2.76999998      -1.60391011E-07
   2.77099991      -1.63052050E-07
   2.77200007      -1.65754130E-07
   2.77300000      -1.68497749E-07
   2.77399993      -1.71283347E-07
   2.77500010      -1.74111364E-07
   2.77600002      -1.76982184E-07
   2.77699995      -1.79896176E-07
   2.77800012      -1.82853739E-07
   2.77900004      -1.85855271E-07
   2.77999997      -1.88901211E-07
   2.78099990      -1.91991987E-07
   2.78200006      -1.95128067E-07
   2.78299999      -1.98309891E-07
   2.78399992      -2.01537915E-07
   2.78500009      -2.04812565E-07
   2.78600001      -2.08134210E-07
   2.78699994      -2.11503263E-07
   2.78800011      -2.14920107E-07
   2.78900003      -2.18385154E-07
   2.78999996      -2.21898816E-07
   2.79099989      -2.25461505E-07
   2.79200006      -2.29073663E-07
   2.79299998      -2.32735758E-07
   2.79399991      -2.36448216E-07
   2.79500008      -2.40211421E-07
   2.79600000      -2.44025841E-07
   2.79699993      -2.47891791E-07
   2.79800010      -2.51809723E-07
   2.79900002      -2.55779980E-07
   2.79999995      -2.59803016E-07
   2.80100012      -2.63879230E-07
   2.80200005      -2.68009074E-07
   2.80299997      -2.72192977E-07
   2.80399990      -2.76431422E-07
   2.80500007      -2.80724947E-07
   2.80599999      -2.85073980E-07
   2.80699992      -2.89479061E-07
   2.80800009      -2.93940616E-07
   2.80900002      -2.98459128E-07
   2.80999994      -3.03034966E-07
   2.81100011      -3.07668614E-07
   2.81200004      -3.12360555E-07
   2.81299996      -3.17111159E-07
   2.81399989      -3.21920936E-07
   2.81500006      -3.26790342E-07
   2.81599998      -3.31719832E-07
   2.81699991      -3.36709945E-07
   2.81800008      -3.41761165E-07
   2.81900001      -3.46874089E-07
   2.81999993      -3.52049284E-07
   2.82100010      -3.57287377E-07
   2.82200003      -3.62588992E-07
   2.82299995      -3.67954669E-07
   2.82399988      -3.73384950E-07
   2.82500005      -3.78880316E-07
   2.82599998      -3.84441279E-07
   2.82699990      -3.90068266E-07
   2.82800007      -3.95761703E-07
   2.82900000      -4.01522101E-07
   2.82999992      -4.07349944E-07
   2.83100009      -4.13245942E-07
   2.83200002      -4.19210750E-07
   2.83299994      -4.25245048E-07
   2.83400011      -4.31349577E-07
   2.83500004      -4.37524989E-07
   2.83599997      -4.43771853E-07
   2.83699989      -4.50090795E-07
   2.83800006      -4.56482326E-07
   2.83899999      -4.62946986E-07
   2.83999991      -4.69485258E-07
   2.84100008      -4.76097767E-07
   2.84200001      -4.82785197E-07
   2.84299994      -4.89548370E-07
   2.84400010      -4.96387941E-07
   2.84500003      -5.03304761E-07
   2.84599996      -5.10299515E-07
   2.84699988      -5.17372882E-07
   2.84800005      -5.24525490E-07
   2.84899998      -5.31757848E-07
   2.84999990      -5.39070641E-07
   2.85100007      -5.46464548E-07
   2.85200000      -5.53940254E-07
   2.85299993      -5.61498609E-07
   2.85400009      -5.69140468E-07
   2.85500002      -5.76866682E-07
   2.85599995      -5.84678048E-07