   2.00000000       0.00000000    
   2.00099993       0.00000000    
   2.00200009       0.00000000    
   2.00300002       0.00000000    
   2.00399995       0.00000000    
   2.00500011       0.00000000    
   2.00600004       0.00000000    
   2.00699997       0.00000000    
   2.00799990       0.00000000    
   2.00900006       0.00000000    
   2.00999999       0.00000000    
   2.01099992      -2.80259693E-45
   2.01200008       1.36195000E-40
   2.01300001      -6.40683467E-40
   2.01399994      -2.10063636E-38
   2.01500010      -1.56959811E-37
   2.01600003      -6.49805012E-37
   2.01699996      -1.72442291E-36
   2.01799989      -2.94221773E-36
   2.01900005      -2.67560763E-36
   2.01999998       2.75802488E-37
   2.02099991       1.68252978E-36
   2.02200007      -1.21330819E-35
   2.02300000      -5.58462156E-35
   2.02399993      -1.13425585E-34
   2.02500010      -8.37940759E-35
   2.02600002       2.88615133E-34
   2.02699995       1.50953734E-33
   2.02800012       4.50300956E-33
   2.02900004       1.08811192E-32
   2.02999997       2.31566980E-32
   2.03099990       4.42794087E-32
   2.03200006       7.52093334E-32
   2.03299999       1.08854233E-31
   2.03399992       1.19666865E-31
   2.03500009       5.19003267E-32
   2.03600001      -1.83572615E-31
   2.03699994      -6.86235452E-31
   2.03800011      -1.49724634E-30
   2.03900003      -2.47980633E-30
   2.03999996      -3.18092119E-30
   2.04099989      -2.76269535E-30
   2.04200006      -1.37882549E-31
   2.04299998       5.56590557E-30
   2.04399991       1.42027162E-29
   2.04500008       2.36793854E-29
   2.04600000       2.93839673E-29
   2.04699993       2.46248575E-29
   2.04800010       2.63751724E-30
   2.04900002      -3.97568244E-29
   2.04999995      -9.75690795E-29
   2.05100012      -1.53806234E-28
   2.05200005      -1.78769825E-28
   2.05299997      -1.34979583E-28
   2.05399990       1.06532341E-29
   2.05500007       2.67838572E-28
   2.05599999       6.00804246E-28
   2.05699992       9.10819167E-28
   2.05800009       1.03478242E-27
   2.05900002       7.72606105E-28
   2.05999994      -4.77495721E-29
   2.06100011      -1.47015506E-27
   2.06200004      -3.29685541E-27
   2.06299996      -5.00627655E-27
   2.06399989      -5.76375327E-27
   2.06500006      -4.58474980E-27
   2.06599998      -6.76488189E-28
   2.06699991       6.08518867E-27
   2.06800008       1.46790636E-26
   2.06900001       2.26805276E-26
   2.06999993       2.64691831E-26
   2.07100010       2.20772000E-26
   2.07200003       6.66143037E-27
   2.07299995      -1.97039890E-26
   2.07399988      -5.25151546E-26
   2.07500005      -8.23875236E-26
   2.07599998      -9.63783970E-26
   2.07699990      -8.13906376E-26
   2.07800007      -2.92505525E-26
   2.07900000       5.78085345E-26
   2.07999992       1.63245310E-25
   2.08100009       2.56108820E-25
   2.08200002       2.96408002E-25
   2.08299994       2.46210317E-25
   2.08400011       8.46545681E-26
   2.08500004      -1.77136892E-25
   2.08599997      -4.86810995E-25
   2.08699989      -7.52848370E-25
   2.08800006      -8.61627407E-25
   2.08899999      -7.09144489E-25
   2.08999991      -2.41650652E-25
   2.09100008       5.05842708E-25
   2.09200001       1.38752291E-24
   2.09299994       2.15491280E-24
   2.09400010       2.50323591E-24
   2.09500003       2.15362045E-24
   2.09599996       9.55569303E-25
   2.09699988      -1.01808653E-24
   2.09800005      -3.41822502E-24
   2.09899998      -5.63994329E-24
   2.09999990      -6.93326852E-24
   2.10100007      -6.59559779E-24
   2.10200000      -4.20720110E-24
   2.10299993       1.55230410E-25
   2.10400009       5.80403070E-24
   2.10500002       1.14912043E-23
   2.10599995       1.56533938E-23
   2.10700011       1.68221511E-23
   2.10800004       1.41054562E-23
   2.10899997       7.59569711E-24
   2.10999990      -1.45476038E-24
   2.11100006      -1.08108449E-23
   2.11199999      -1.78137698E-23
   2.11299992      -2.02240097E-23
   2.11400008      -1.71258863E-23
   2.11500001      -9.59367983E-24
   2.11599994      -8.28307106E-25
   2.11700010       4.41471412E-24
   2.11800003       1.08868485E-24
   2.11899996      -1.44350312E-23
   2.11999989      -4.26431731E-23
   2.12100005      -7.96474928E-23
   2.12199998      -1.16872734E-22
   2.12299991      -1.41886302E-22
   2.12400007      -1.40311660E-22
   2.12500000      -9.85131265E-23
   2.12599993      -6.59167242E-24
   2.12700009       1.38774012E-22
   2.12800002       3.32008003E-22
   2.12899995       5.57080041E-22
   2.13000011       7.86900845E-22
   2.13100004       9.83918010E-22
   2.13199997       1.10228309E-21
   2.13299990       1.09200140E-21
   2.13400006       9.05275065E-22
   2.13499999       5.04705685E-22
   2.13599992      -1.27785495E-22
   2.13700008      -9.83240473E-22
   2.13800001      -2.02140021E-21
   2.13899994      -3.17159101E-21
   2.14000010      -4.33889674E-21
   2.14100003      -5.41344636E-21
   2.14199996      -6.27839294E-21
   2.14299989      -6.81115057E-21
   2.14400005      -6.87368671E-21
   2.14499998      -6.29183341E-21
   2.14599991      -4.83012570E-21
   2.14700007      -2.17602361E-21
   2.14800000       2.04711409E-21
   2.14899993       8.21829142E-21
   2.15000010       1.65947941E-20
   2.15100002       2.71265675E-20
   2.15199995       3.92302975E-20
   2.15300012       5.15668433E-20
   2.15400004       6.18840570E-20
   2.15499997       6.69950380E-20
   2.15599990       6.29547066E-20
   2.15700006       4.54735207E-20
   2.15799999       1.05685442E-20
   2.15899992      -4.45944700E-20
   2.16000009      -1.20759671E-19
   2.16100001      -2.15667130E-19
   2.16199994      -3.23310031E-19
   2.16300011      -4.33502715E-19
   2.16400003      -5.31877754E-19
   2.16499996      -6.00394055E-19
   2.16599989      -6.18399554E-19
   2.16700006      -5.64252414E-19
   2.16799998      -4.17468801E-19
   2.16899991      -1.61326017E-19
   2.17000008       2.14199079E-19
   2.17100000       7.09345581E-19
   2.17199993       1.31161677E-18
   2.17300010       1.99334522E-18
   2.17400002       2.71025066E-18
   2.17499995       3.40152115E-18
   2.17600012       3.99191284E-18
   2.17700005       4.39621225E-18
   2.17799997       4.52613627E-18
   2.17899990       4.29934320E-18
   2.18000007       3.64978887E-18
   2.18099999       2.53824631E-18
   2.18199992       9.61505542E-19
   2.18300009      -1.04130241E-18
   2.18400002      -3.38658517E-18
   2.18499994      -5.94922069E-18
   2.18600011      -8.57063008E-18
   2.18700004      -1.10712550E-17
   2.18799996      -1.32658743E-17
   2.18899989      -1.49796619E-17
   2.19000006      -1.60626382E-17
   2.19099998      -1.64004389E-17
   2.19199991      -1.59199925E-17
   2.19300008      -1.45897207E-17
   2.19400001      -1.24149561E-17
   2.19499993      -9.43037763E-18
   2.19600010      -5.69188273E-18
   2.19700003      -1.27055738E-18
   2.19799995       3.74907494E-18
   2.19899988       9.26525087E-18
   2.20000005       1.51497434E-17
   2.20099998       2.12348347E-17
   2.20199990       2.72994682E-17
   2.20300007       3.30584287E-17
   2.20400000       3.81586986E-17
   2.20499992       4.21865090E-17
   2.20600009       4.46873407E-17
   2.20700002       4.51991637E-17
   2.20799994       4.32969990E-17
   2.20900011       3.86445349E-17
   2.21000004       3.10468611E-17
   2.21099997       2.04972064E-17
   2.21199989       7.21060454E-18
   2.21300006      -8.36152296E-18
   2.21399999      -2.55396828E-17
   2.21499991      -4.34484392E-17
   2.21600008      -6.10699241E-17
   2.21700001      -7.73132367E-17
   2.21799994      -9.10917959E-17
   2.21900010      -1.01399518E-16
   2.22000003      -1.07377123E-16
   2.22099996      -1.08361388E-16
   2.22199988      -1.03913526E-16
   2.22300005      -9.38262829E-17
   2.22399998      -7.81132924E-17
   2.22499990      -5.69870333E-17
   2.22600007      -3.08334088E-17
   2.22700000      -1.90557662E-19
   2.22799993       3.42620691E-17
   2.22900009       7.17021198E-17
   2.23000002       1.11151554E-16
   2.23099995       1.51457988E-16
   2.23200011       1.91278065E-16
   2.23300004       2.29071537E-16
   2.23399997       2.63113739E-16
   2.23499990       2.91531112E-16
   2.23600006       3.12361028E-16
   2.23699999       3.23632337E-16
   2.23799992       3.23460918E-16
   2.23900008       3.10151410E-16
   2.24000001       2.82298400E-16
   2.24099994       2.38880973E-16
   2.24200010       1.79347659E-16
   2.24300003       1.03692516E-16
   2.24399996       1.25242689E-17
   2.24499989      -9.28689769E-17
   2.24600005      -2.10459047E-16
   2.24699998      -3.37424680E-16
   2.24799991      -4.70114562E-16
   2.24900007      -6.04040000E-16
   2.25000000      -7.33913391E-16
   2.25099993      -8.53750342E-16
   2.25200009      -9.57049080E-16
   2.25300002      -1.03705410E-15
   2.25399995      -1.08710273E-15
   2.25500011      -1.10103685E-15
   2.25600004      -1.07365661E-15
   2.25699997      -1.00117579E-15
   2.25799990      -8.81637314E-16
   2.25900006      -7.15240973E-16
   2.25999999      -5.04544651E-16
   2.26099992      -2.54504866E-16
   2.26200008       2.76584133E-17
   2.26300001       3.32772643E-16
   2.26399994       6.50178837E-16
   2.26500010       9.68313666E-16
   2.26600003       1.27535527E-15
   2.26699996       1.55986824E-15
   2.26799989       1.81138398E-15
   2.26900005       2.02085671E-15
   2.26999998       2.18095166E-15
   2.27099991       2.28614277E-15
   2.27200007       2.33262455E-15
   2.27300000       2.31806787E-15
   2.27399993       2.24128327E-15
   2.27500010       2.10185890E-15
   2.27600002       1.89986208E-15
   2.27699995       1.63567875E-15
   2.27800012       1.31005218E-15
   2.27900004       9.24347997E-16
   2.27999997       4.81039805E-16
   2.28099990      -1.56342314E-17
   2.28200006      -5.58928296E-16
   2.28299999      -1.13887762E-15
   2.28399992      -1.74175194E-15
   2.28500009      -2.34980894E-15
   2.28600001      -2.94146548E-15
   2.28699994      -3.49196723E-15
   2.28800011      -3.97458437E-15
   2.28900003      -4.36228617E-15
   2.28999996      -4.62978426E-15
   2.29099989      -4.75574187E-15
   2.29200006      -4.72489886E-15
   2.29299998      -4.52981912E-15
   2.29399991      -4.17197057E-15
   2.29500008      -3.66188437E-15
   2.29600000      -3.01825389E-15
   2.29699993      -2.26594887E-15
   2.29800010      -1.43311188E-15
   2.29900002      -5.47670275E-16
   2.29999995       3.66238650E-16
   2.30100012       1.29132195E-15
   2.30200005       2.21903468E-15
   2.30299997       3.14978180E-15
   2.30399990       4.09105436E-15
   2.30500007       5.05344049E-15
   2.30599999       6.04480658E-15
   2.30699992       7.06334253E-15
   2.30800009       8.09051566E-15
   2.30900002       9.08521779E-15
   2.30999994       9.98048164E-15
   2.31100011       1.06839899E-14
   2.31200004       1.10832745E-14
   2.31299996       1.10559263E-14
   2.31399989       1.04844298E-14
   2.31500006       9.27445088E-15
   2.31599998       7.37465763E-15
   2.31699991       4.79554988E-15
   2.31800008       1.62440569E-15
   2.31900001      -1.96656889E-15
   2.31999993      -5.72146912E-15
   2.32100010      -9.31314504E-15
   2.32200003      -1.23676695E-14
   2.32299995      -1.45002842E-14
   2.32399988      -1.53608053E-14
   2.32500005      -1.46850187E-14
   2.32599998      -1.23472628E-14
   2.32699990      -8.40837918E-15
   2.32800007      -3.15262995E-15
   2.32900000       2.89285130E-15
   2.32999992       8.96191860E-15
   2.33100009       1.40811833E-14
   2.33200002       1.71324120E-14
   2.33299994       1.69457987E-14
   2.33400011       1.24214231E-14
   2.33500004       2.67297785E-15
   2.33599997      -1.28155280E-14
   2.33699989      -3.40324658E-14
   2.33800006      -6.02959116E-14
   2.33899999      -9.01426896E-14
   2.33999991      -1.21267186E-13
   2.34100008      -1.50527553E-13
   2.34200001      -1.74034791E-13
   2.34299994      -1.87336380E-13
   2.34400010      -1.85700915E-13
   2.34500003      -1.64502174E-13
   2.34599996      -1.19693521E-13
   2.34699988      -4.83534348E-14
   2.34800005       5.07267127E-14
   2.34899998       1.76449553E-13
   2.34999990       3.24858630E-13
   2.35100007       4.88674910E-13
   2.35200000       6.56974150E-13
   2.35299993       8.15054187E-13
   2.35400009       9.44533405E-13
   2.35500002       1.02371204E-12
   2.35599995       1.02821061E-12
   2.35700011       9.31883260E-13
   2.35800004       7.07979248E-13
   2.35899997       3.30511009E-13
   2.35999990      -2.24241632E-13
   2.36100006      -9.76172160E-13
   2.36199999      -1.93982872E-12
   2.36299992      -3.12303850E-12
   2.36400008      -4.52577732E-12
   2.36500001      -6.13937373E-12
   2.36599994      -7.94612640E-12
   2.36700010      -9.91938736E-12
   2.36800003      -1.20241308E-11
   2.36899996      -1.42179966E-11
   2.36999989      -1.64527697E-11
   2.37100005      -1.86762168E-11
   2.37199998      -2.08341608E-11
   2.37299991      -2.28726916E-11
   2.37400007      -2.47403556E-11
   2.37500000      -2.63901834E-11
   2.37599993      -2.77814247E-11
   2.37700009      -2.88808751E-11
   2.37800002      -2.96637055E-11
   2.37899995      -3.01137448E-11
   2.38000011      -3.02232128E-11
   2.38100004      -2.99918979E-11
   2.38199997      -2.94259131E-11
   2.38299990      -2.85360589E-11
   2.38400006      -2.73359963E-11
   2.38499999      -2.58403004E-11
   2.38599992      -2.40625905E-11
   2.38700008      -2.20138543E-11
   2.38800001      -1.97010915E-11
   2.38899994      -1.71263455E-11
   2.39000010      -1.42861972E-11
   2.39100003      -1.11717293E-11
   2.39199996      -7.76891659E-12
   2.39299989      -4.05939995E-12
   2.39400005      -2.15554571E-14
   2.39499998       4.36826183E-12
   2.39599991       9.13440504E-12
   2.39700007       1.43006700E-11
   2.39800000       1.98891702E-11
   2.39899993       2.59194541E-11
   2.40000010       3.24078889E-11
   2.40100002       3.93673705E-11
   2.40199995       4.68073150E-11
   2.40300012       5.47339396E-11
   2.40400004       6.31507693E-11
   2.40499997       7.20592891E-11
   2.40599990       8.14596654E-11
   2.40700006       9.13515513E-11
   2.40799999       1.01734801E-10
   2.40899992       1.12610081E-10
   2.41000009       1.23979382E-10
   2.41100001       1.35846417E-10
   2.41199994       1.48216800E-10
   2.41300011       1.61098204E-10
   2.41400003       1.74500248E-10
   2.41499996       1.88434449E-10
   2.41599989       2.02913936E-10
   2.41700006       2.17953239E-10
   2.41799998       2.33567998E-10
   2.41899991       2.49774534E-10
   2.42000008       2.66589611E-10
   2.42100000       2.84029911E-10
   2.42199993       3.02111808E-10
   2.42300010       3.20850790E-10
   2.42400002       3.40261291E-10
   2.42499995       3.60356245E-10
   2.42600012       3.81146809E-10
   2.42700005       4.02642392E-10
   2.42799997       4.24850405E-10
   2.42899990       4.47776705E-10
   2.43000007       4.71425676E-10
   2.43099999       4.95800678E-10
   2.43199992       5.20904930E-10
   2.43300009       5.46741930E-10
   2.43400002       5.73316394E-10
   2.43499994       6.00635042E-10
   2.43600011       6.28707142E-10
   2.43700004       6.57545185E-10
   2.43799996       6.87165158E-10
   2.43899989       7.17586268E-10
   2.44000006       7.48831108E-10
   2.44099998       7.80924603E-10
   2.44199991       8.13893619E-10
   2.44300008       8.47765580E-10
   2.44400001       8.82567519E-10
   2.44499993       9.18324861E-10
   2.44600010       9.55060364E-10
   2.44700003       9.92793292E-10
   2.44799995       1.03153897E-09
   2.44899988       1.07130893E-09
   2.45000005       1.11211118E-09
   2.45099998       1.15395038E-09
   2.45199990       1.19682952E-09
   2.45300007       1.24075095E-09
   2.45400000       1.28571775E-09
   2.45499992       1.33173539E-09
   2.45600009       1.37881251E-09
   2.45700002       1.42696288E-09
   2.45799994       1.47620538E-09
   2.45900011       1.52656399E-09
   2.46000004       1.57806834E-09
   2.46099997       1.63075198E-09
   2.46199989       1.68465186E-09
   2.46300006       1.73980652E-09
   2.46399999       1.79625526E-09
   2.46499991       1.85403592E-09
   2.46600008       1.91318428E-09
   2.46700001       1.97373207E-09
   2.46799994       2.03570716E-09
   2.46900010       2.09913198E-09
   2.47000003       2.16402474E-09
   2.47099996       2.23039986E-09
   2.47199988       2.29826891E-09
   2.47300005       2.36764208E-09
   2.47399998       2.43852916E-09
   2.47499990       2.51094190E-09
   2.47600007       2.58489519E-09
   2.47700000       2.66040834E-09
   2.47799993       2.73750578E-09
   2.47900009       2.81621726E-09
   2.48000002       2.89657831E-09
   2.48099995       2.97863045E-09
   2.48200011       3.06241965E-09
   2.48300004       3.14799653E-09
   2.48399997       3.23541394E-09
   2.48499990       3.32472627E-09
   2.48600006       3.41598749E-09
   2.48699999       3.50925000E-09
   2.48799992       3.60456287E-09
   2.48900008       3.70197029E-09
   2.49000001       3.80151288E-09
   2.49099994       3.90322707E-09
   2.49200010       4.00714484E-09
   2.49300003       4.11329371E-09
   2.49399996       4.22169855E-09
   2.49499989       4.33238290E-09
   2.49600005       4.44537029E-09
   2.49699998       4.56068250E-09
   2.49799991       4.67834615E-09
   2.49900007       4.79838880E-09
   2.50000000       4.92084329E-09
   2.50099993       5.04574826E-09
   2.50200009       5.17314680E-09
   2.50300002       5.30308863E-09
   2.50399995       5.43562528E-09
   2.50500011       5.57081226E-09
   2.50600004       5.70870684E-09
   2.50699997       5.84936499E-09
   2.50799990       5.99284267E-09
   2.50900006       6.13919449E-09
   2.50999999       6.28847152E-09
   2.51099992       6.44072307E-09
   2.51200008       6.59599442E-09
   2.51300001       6.75432821E-09
   2.51399994       6.91576485E-09
   2.51500010       7.08034387E-09
   2.51600003       7.24810434E-09
   2.51699996       7.41908757E-09
   2.51799989       7.59333751E-09
   2.51900005       7.77090481E-09
   2.51999998       7.95184629E-09
   2.52099991       8.13622147E-09
   2.52200007       8.32409874E-09
   2.52300000       8.51554738E-09
   2.52399993       8.71064465E-09
   2.52500010       8.90946694E-09
   2.52600002       9.11209241E-09
   2.52699995       9.31860100E-09
   2.52800012       9.52906820E-09
   2.52900004       9.74357217E-09
   2.52999997       9.96218841E-09
   2.53099990       1.01849915E-08
   2.53200006       1.04120579E-08
   2.53299999       1.06434630E-08
   2.53399992       1.08792850E-08
   2.53500009       1.11196021E-08
   2.53600001       1.13644942E-08
   2.53699994       1.16140466E-08
   2.53800011       1.18683490E-08
   2.53900003       1.21274946E-08
   2.53999996       1.23915793E-08
   2.54099989       1.26607009E-08
   2.54200006       1.29349562E-08
   2.54299998       1.32144384E-08
   2.54399991       1.34992408E-08
   2.54500008       1.37894478E-08
   2.54600000       1.40851437E-08
   2.54699993       1.43864094E-08
   2.54800010       1.46933257E-08
   2.54900002       1.50059734E-08
   2.54999995       1.53244351E-08
   2.55100012       1.56487889E-08
   2.55200005       1.59791256E-08
   2.55299997       1.63155338E-08
   2.55399990       1.66581042E-08
   2.55500007       1.70069381E-08
   2.55599999       1.73621402E-08
   2.55699992       1.77238224E-08
   2.55800009       1.80921020E-08
   2.55900002       1.84670874E-08
   2.55999994       1.88488976E-08
   2.56100011       1.92376408E-08
   2.56200004       1.96334256E-08
   2.56299996       2.00363619E-08
   2.56399989       2.04465547E-08
   2.56500006       2.08641104E-08
   2.56599998       2.12891358E-08
   2.56699991       2.17217444E-08
   2.56800008       2.21620446E-08
   2.56900001       2.26101573E-08
   2.56999993       2.30661996E-08
   2.57100010       2.35302924E-08
   2.57200003       2.40025617E-08
   2.57299995       2.44831462E-08
   2.57399988       2.49721808E-08
   2.57500005       2.54698040E-08
   2.57599998       2.59761581E-08
   2.57699990       2.64913833E-08
   2.57800007       2.70156093E-08
   2.57900000       2.75489658E-08
   2.57999992       2.80915771E-08
   2.58100009       2.86435657E-08
   2.58200002       2.92050597E-08
   2.58299994       2.97761780E-08
   2.58400011       3.03570538E-08
   2.58500004       3.09478025E-08
   2.58599997       3.15485522E-08
   2.58699989       3.21594342E-08
   2.58800006       3.27805729E-08
   2.58899999       3.34121175E-08
   2.58999991       3.40542066E-08
   2.59100008       3.47069964E-08
   2.59200001       3.53706504E-08
   2.59299994       3.60453249E-08
   2.59400010       3.67311905E-08
   2.59500003       3.74284177E-08
   2.59599996       3.81371770E-08
   2.59699988       3.88576566E-08
   2.59800005       3.95900486E-08
   2.59899998       4.03345553E-08
   2.59999990       4.10913898E-08
   2.60100007       4.18607655E-08
   2.60200000       4.26428954E-08
   2.60299993       4.34380070E-08
   2.60400009       4.42463204E-08
   2.60500002       4.50680737E-08
   2.60599995       4.59034979E-08
   2.60700011       4.67528380E-08
   2.60800004       4.76163393E-08
   2.60899997       4.84942717E-08
   2.60999990       4.93868875E-08
   2.61100006       5.02944566E-08
   2.61199999       5.12172491E-08
   2.61299992       5.21555350E-08
   2.61400008       5.31095807E-08
   2.61500001       5.40796812E-08
   2.61599994       5.50661312E-08
   2.61700010       5.60692222E-08
   2.61800003       5.70892595E-08
   2.61899996       5.81265347E-08
   2.61999989       5.91813389E-08
   2.62100005       6.02539529E-08
   2.62199998       6.13446431E-08
   2.62299991       6.24536867E-08
   2.62400007       6.35813464E-08
   2.62500000       6.47278711E-08
   2.62599993       6.58935235E-08
   2.62700009       6.70785596E-08
   2.62800002       6.82832280E-08
   2.62899995       6.95077986E-08
   2.63000011       7.07525629E-08
   2.63100004       7.20177766E-08
   2.63199997       7.33037524E-08
   2.63299990       7.46107816E-08
   2.63400006       7.59391412E-08
   2.63499999       7.72891298E-08
   2.63599992       7.86610173E-08
   2.63700008       8.00550879E-08
   2.63800001       8.14715975E-08
   2.63899994       8.29108018E-08
   2.64000010       8.43729282E-08
   2.64100003       8.58582112E-08
   2.64199996       8.73668569E-08
   2.64299989       8.88990854E-08
   2.64400005       9.04551172E-08
   2.64499998       9.20351653E-08
   2.64599991       9.36394713E-08
   2.64700007       9.52682768E-08
   2.64800000       9.69218235E-08
   2.64899993       9.86003741E-08
   2.65000010       1.00304192E-07
   2.65100002       1.02033539E-07
   2.65199995       1.03788686E-07
   2.65300012       1.05569860E-07
   2.65400004       1.07377282E-07
   2.65499997       1.09211143E-07
   2.65599990       1.11071635E-07
   2.65700006       1.12958908E-07
   2.65799999       1.14873160E-07
   2.65899992       1.16814526E-07
   2.66000009       1.18783205E-07
   2.66100001       1.20779390E-07
   2.66199994       1.22803257E-07
   2.66300011       1.24855092E-07
   2.66400003       1.26935191E-07
   2.66499996       1.29043883E-07
   2.66599989       1.31181537E-07
   2.66700006       1.33348621E-07
   2.66799998       1.35545577E-07
   2.66899991       1.37772886E-07
   2.67000008       1.40031091E-07
   2.67100000       1.42320744E-07
   2.67199993       1.44642371E-07
   2.67300010       1.46996598E-07
   2.67400002       1.49384022E-07
   2.67499995       1.51805338E-07
   2.67600012       1.54261230E-07
   2.67700005       1.56752478E-07
   2.67799997       1.59279878E-07
   2.67899990       1.61844255E-07
   2.68000007       1.64446490E-07
   2.68099999       1.67087549E-07
   2.68199992       1.69768413E-07
   2.68300009       1.72490090E-07
   2.68400002       1.75253632E-07
   2.68499994       1.78060063E-07
   2.68600011       1.80910405E-07
   2.68700004       1.83805625E-07
   2.68799996       1.86746703E-07
   2.68899989       1.89734564E-07
   2.69000006       1.92770173E-07
   2.69099998       1.95854426E-07
   2.69199991       1.98988246E-07
   2.69300008       2.02172529E-07
   2.69400001       2.05408156E-07
   2.69499993       2.08696022E-07
   2.69600010       2.12037023E-07
   2.69700003       2.15432095E-07
   2.69799995       2.18882164E-07
   2.69899988       2.22388181E-07
   2.70000005       2.25951098E-07
   2.70099998       2.29571882E-07
   2.70199990       2.33251498E-07
   2.70300007       2.36990843E-07
   2.70400000       2.40790854E-07
   2.70499992       2.44652426E-07
   2.70600009       2.48576526E-07
   2.70700002       2.52564064E-07
   2.70799994       2.56616062E-07
   2.70900011       2.60733600E-07
   2.71000004       2.64917730E-07
   2.71099997       2.69169533E-07
   2.71199989       2.73490144E-07
   2.71300006       2.77880702E-07
   2.71399999       2.82342342E-07
   2.71499991       2.86876201E-07
   2.71600008       2.91483445E-07
   2.71700001       2.96165240E-07
   2.71799994       3.00922579E-07
   2.71900010       3.05756515E-07
   2.72000003       3.10668071E-07
   2.72099996       3.15658127E-07
   2.72199988       3.20727679E-07
   2.72300005       3.25877664E-07
   2.72399998       3.31109050E-07
   2.72499990       3.36422886E-07
   2.72600007       3.41820225E-07
   2.72700000       3.47302262E-07
   2.72799993       3.52870245E-07
   2.72900009       3.58525398E-07
   2.73000002       3.64269084E-07
   2.73099995       3.70102640E-07
   2.73200011       3.76027486E-07
   2.73300004       3.82045073E-07
   2.73399997       3.88156906E-07
   2.73499990       3.94364463E-07
   2.73600006       4.00669222E-07
   2.73699999       4.07072633E-07
   2.73799992       4.13576089E-07
   2.73900008       4.20180925E-07
   2.74000001       4.26888619E-07
   2.74099994       4.33700620E-07
   2.74200010       4.40618436E-07
   2.74300003       4.47643515E-07
   2.74399996       4.54777194E-07
   2.74499989       4.62020864E-07
   2.74600005       4.69375891E-07
   2.74699998       4.76843525E-07
   2.74799991       4.84425016E-07
   2.74900007       4.92121444E-07
   2.75000000       4.99933833E-07
   2.75099993       5.07863035E-07
   2.75200009       5.15909733E-07
   2.75300002       5.24074721E-07
   2.75399995       5.32358342E-07
   2.75500011       5.40761164E-07
   2.75600004       5.49283584E-07
   2.75699997       5.57926228E-07
   2.75799990       5.66689664E-07
   2.75900006       5.75574404E-07
   2.75999999       5.84581130E-07
   2.76099992       5.93710297E-07
   2.76200008       6.02962416E-07
   2.76300001       6.12337885E-07
   2.76399994       6.21837160E-07
   2.76500010       6.31460807E-07
   2.76600003       6.41209226E-07
   2.76699996       6.51082928E-07
   2.76799989       6.61082254E-07
   2.76900005       6.71207601E-07
   2.76999998       6.81459142E-07
   2.77099991       6.91837101E-07
   2.77200007       7.02341822E-07
   2.77300000       7.12973531E-07
   2.77399993       7.23732740E-07
   2.77500010       7.34619960E-07
   2.77600002       7.45635873E-07
   2.77699995       7.56781105E-07
   2.77800012       7.68056282E-07
   2.77900004       7.79461857E-07
   2.77999997       7.90998456E-07
   2.78099990       8.02666420E-07
   2.78200006       8.14466262E-07
   2.78299999       8.26398491E-07
   2.78399992       8.38463620E-07
   2.78500009       8.50661991E-07
   2.78600001       8.62993943E-07
   2.78699994       8.75459932E-07
   2.78800011       8.88060242E-07
   2.78900003       9.00795385E-07
   2.78999996       9.13665986E-07
   2.79099989       9.26672840E-07
   2.79200006       9.39817141E-07
   2.79299998       9.53099914E-07
   2.79399991       9.66522521E-07
   2.79500008       9.80085929E-07
   2.79600000       9.93791559E-07
   2.79699993       1.00764032E-06
   2.79800010       1.02163347E-06
   2.79900002       1.03577224E-06
   2.79999995       1.05005790E-06
   2.80100012       1.06449181E-06
   2.80200005       1.07907510E-06
   2.80299997       1.09380937E-06
   2.80399990       1.10869564E-06
   2.80500007       1.12373527E-06
   2.80599999       1.13892963E-06
   2.80699992       1.15428020E-06
   2.80800009       1.16978867E-06
   2.80900002       1.18545711E-06
   2.80999994       1.20128709E-06
   2.81100011       1.21728044E-06
   2.81200004       1.23343898E-06
   2.81299996       1.24976430E-06
   2.81399989       1.26625775E-06
   2.81500006       1.28292095E-06
   2.81599998       1.29975547E-06
   2.81699991       1.31676268E-06
   2.81800008       1.33394451E-06
   2.81900001       1.35130233E-06
   2.81999993       1.36883818E-06
   2.82100010       1.38655355E-06
   2.82200003       1.40445024E-06
   2.82299995       1.42253009E-06
   2.82399988       1.44079524E-06
   2.82500005       1.45924776E-06
   2.82599998       1.47789024E-06
   2.82699990       1.49672485E-06
   2.82800007       1.51575398E-06
   2.82900000       1.53497990E-06
   2.82999992       1.55440455E-06
   2.83100009       1.57403008E-06
   2.83200002       1.59385831E-06
   2.83299994       1.61389164E-06
   2.83400011       1.63413222E-06
   2.83500004       1.65458255E-06
   2.83599997       1.67524524E-06
   2.83699989       1.69612258E-06
   2.83800006       1.71721740E-06
   2.83899999       1.73853164E-06
   2.83999991       1.76006813E-06
   2.84100008       1.78182893E-06
   2.84200001       1.80381699E-06
   2.84299994       1.82603469E-06
   2.84400010       1.84848500E-06
   2.84500003       1.87117064E-06
   2.84599996       1.89409377E-06
   2.84699988       1.91725644E-06
   2.84800005       1.94066115E-06
   2.84899998       1.96430938E-06
   2.84999990       1.98820339E-06
   2.85100007       2.01234525E-06
   2.85200000       2.03673767E-06
   2.85299993       2.06138225E-06
   2.85400009       2.08628239E-06
   2.85500002       2.11143993E-06
   2.85599995       2.13685689E-06