   2.00000000       0.00000000    
   2.00099993       0.00000000    
   2.00200009       0.00000000    
   2.00300002       0.00000000    
   2.00399995       0.00000000    
   2.00500011       0.00000000    
   2.00600004       0.00000000    
   2.00699997       0.00000000    
   2.00799990       0.00000000    
   2.00900006      -9.38869971E-44
   2.00999999       1.29661346E-35
   2.01099992       1.46168452E-34
   2.01200008       7.78246045E-34
   2.01300001       2.65368144E-33
   2.01399994       6.45763038E-33
   2.01500010       1.13297812E-32
   2.01600003       1.26216135E-32
   2.01699996       2.56719738E-33
   2.01799989      -1.78398063E-32
   2.01900005      -1.03500536E-32
   2.01999998       1.27818460E-31
   2.02099991       5.32313777E-31
   2.02200007       1.21567406E-30
   2.02300000       1.82156316E-30
   2.02399993       1.52437844E-30
   2.02500010      -5.85451717E-31
   2.02600002      -4.57163370E-30
   2.02699995      -8.79953179E-30
   2.02800012      -1.02645280E-29
   2.02900004      -6.60369705E-30
   2.02999997       1.45610357E-30
   2.03099990       9.81169825E-30
   2.03200006       1.42437957E-29
   2.03299999       1.47019714E-29
   2.03399992       1.50820973E-29
   2.03500009       1.57931777E-29
   2.03600001       5.37086077E-30
   2.03699994      -3.56805335E-29
   2.03800011      -1.12070429E-28
   2.03900003      -1.86092788E-28
   2.03999996      -1.77300220E-28
   2.04099989      -1.17483464E-29
   2.04200006       2.99564488E-28
   2.04299998       6.17060539E-28
   2.04399991       7.23345391E-28
   2.04500008       4.58885213E-28
   2.04600000      -1.51522683E-28
   2.04699993      -8.90366561E-28
   2.04800010      -1.47283364E-27
   2.04900002      -1.69071111E-27
   2.04999995      -1.42694576E-27
   2.05100012      -5.28455532E-28
   2.05200005       1.27291008E-27
   2.05299997       4.15040715E-27
   2.05399990       7.67424843E-27
   2.05500007       1.03760616E-26
   2.05599999       9.93484645E-27
   2.05699992       4.23795145E-27
   2.05800009      -7.09370458E-27
   2.05900002      -2.16768099E-26
   2.05999994      -3.47192568E-26
   2.06100011      -4.08511435E-26
   2.06200004      -3.65108277E-26
   2.06299996      -2.14878515E-26
   2.06399989       1.26604077E-27
   2.06500006       2.72669864E-26
   2.06599998       5.23336303E-26
   2.06699991       7.34458654E-26
   2.06800008       8.84465115E-26
   2.06900001       9.54461545E-26
   2.06999993       9.28754540E-26
   2.07100010       8.00862068E-26
   2.07200003       5.72160322E-26
   2.07299995       2.31340871E-26
   2.07399988      -2.77847504E-26
   2.07500005      -1.06783343E-25
   2.07599998      -2.25755893E-25
   2.07699990      -3.85012218E-25
   2.07800007      -5.58140143E-25
   2.07900000      -6.83205066E-25
   2.07999992      -6.69660177E-25
   2.08100009      -4.24051884E-25
   2.08200002       1.12567468E-25
   2.08299994       9.30771361E-25
   2.08400011       1.93818076E-24
   2.08500004       2.97118662E-24
   2.08599997       3.82634418E-24
   2.08699989       4.29457494E-24
   2.08800006       4.18196544E-24
   2.08899999       3.31397114E-24
   2.08999991       1.53834464E-24
   2.09100008      -1.24679653E-24
   2.09200001      -5.02129688E-24
   2.09299994      -9.53888319E-24
   2.09400010      -1.42413122E-23
   2.09500003      -1.82665318E-23
   2.09599996      -2.06122854E-23
   2.09699988      -2.04526941E-23
   2.09800005      -1.75099385E-23
   2.09899998      -1.23028925E-23
   2.09999990      -6.08596880E-24
   2.10100007      -3.89562343E-25
   2.10200000       3.73839605E-24
   2.10299993       6.48831665E-24
   2.10400009       9.63481972E-24
   2.10500002       1.61451002E-23
   2.10599995       2.90012027E-23
   2.10700011       4.95740577E-23
   2.10800004       7.62082359E-23
   2.10899997       1.03752053E-22
   2.10999990       1.24503216E-22
   2.11100006       1.30492563E-22
   2.11199999       1.16405716E-22
   2.11299992       8.20274230E-23
   2.11400008       3.31169267E-23
   2.11500001      -1.98636643E-23
   2.11599994      -6.49142279E-23
   2.11700010      -9.25022589E-23
   2.11800003      -9.89630613E-23
   2.11899996      -8.80728238E-23
   2.11999989      -7.03441595E-23
   2.12100005      -6.05548627E-23
   2.12199998      -7.46894830E-23
   2.12299991      -1.27471125E-22
   2.12400007      -2.30939775E-22
   2.12500000      -3.93437447E-22
   2.12599993      -6.17504413E-22
   2.12700009      -8.95170780E-22
   2.12800002      -1.20022150E-21
   2.12899995      -1.47897904E-21
   2.13000011      -1.64328001E-21
   2.13100004      -1.57070451E-21
   2.13199997      -1.11694778E-21
   2.13299990      -1.43192113E-22
   2.13400006       1.44233712E-21
   2.13499999       3.63400355E-21
   2.13599992       6.27935340E-21
   2.13700008       9.04361168E-21
   2.13800001       1.14020805E-20
   2.13899994       1.26727446E-20
   2.14000010       1.20967781E-20
   2.14100003       8.96721057E-21
   2.14199996       2.79639958E-21
   2.14299989      -6.49772182E-21
   2.14400005      -1.84168920E-20
   2.14499998      -3.17571892E-20
   2.14599991      -4.45741395E-20
   2.14700007      -5.42755787E-20
   2.14800000      -5.78680499E-20
   2.14899993      -5.23629432E-20
   2.15000010      -3.53221760E-20
   2.15100002      -5.49359241E-21
   2.15199995       3.65426390E-20
   2.15300012       8.78178947E-20
   2.15400004       1.42621021E-19
   2.15499997       1.92452746E-19
   2.15599990       2.26370848E-19
   2.15700006       2.31766237E-19
   2.15799999       1.95553988E-19
   2.15899992       1.05699614E-19
   2.16000009      -4.70603988E-20
   2.16100001      -2.67494700E-19
   2.16199994      -5.54369674E-19
   2.16300011      -8.99381072E-19
   2.16400003      -1.28671853E-18
   2.16499996      -1.69340177E-18
   2.16599989      -2.09044567E-18
   2.16700006      -2.44481605E-18
   2.16799998      -2.72203157E-18
   2.16899991      -2.88917603E-18
   2.17000008      -2.91799686E-18
   2.17100000      -2.78772791E-18
   2.17199993      -2.48727544E-18
   2.17300010      -2.01644982E-18
   2.17400002      -1.38605041E-18
   2.17499995      -6.16761581E-19
   2.17600012       2.62997423E-19
   2.17700005       1.21993631E-18
   2.17799997       2.21900567E-18
   2.17899990       3.22622587E-18
   2.18000007       4.21074761E-18
   2.18099999       5.14580953E-18
   2.18199992       6.00849976E-18
   2.18300009       6.77851889E-18
   2.18400002       7.43638679E-18
   2.18499994       7.96170935E-18
   2.18600011       8.33212744E-18
   2.18700004       8.52342454E-18
   2.18799996       8.51097051E-18
   2.18899989       8.27227845E-18
   2.19000006       7.79012893E-18
   2.19099998       7.05543455E-18
   2.19199991       6.06900099E-18
   2.19300008       4.84151253E-18
   2.19400001       3.39149821E-18
   2.19499993       1.74151752E-18
   2.19600010      -8.66319826E-20
   2.19700003      -2.07655007E-18
   2.19799995      -4.22042645E-18
   2.19899988      -6.51969200E-18
   2.20000005      -8.98251061E-18
   2.20099998      -1.16181380E-17
   2.20199990      -1.44289184E-17
   2.20300007      -1.74013142E-17
   2.20400000      -2.04977093E-17
   2.20499992      -2.36508722E-17
   2.20600009      -2.67625271E-17
   2.20700002      -2.97070171E-17
   2.20799994      -3.23400852E-17
   2.20900011      -3.45119802E-17
   2.21000004      -3.60831701E-17
   2.21099997      -3.69404766E-17
   2.21199989      -3.70110418E-17
   2.21300006      -3.62718401E-17
   2.21399999      -3.47528619E-17
   2.21499991      -3.25331525E-17
   2.21600008      -2.97299234E-17
   2.21700001      -2.64821443E-17
   2.21799994      -2.29309901E-17
   2.21900010      -1.92001623E-17
   2.22000003      -1.53791934E-17
   2.22099996      -1.15124425E-17
   2.22199988      -7.59556447E-18
   2.22300005      -3.57998186E-18
   2.22399998       6.15504318E-19
   2.22499990       5.08800945E-18
   2.22600007       9.93171939E-18
   2.22700000       1.52201133E-17
   2.22799993       2.09921449E-17
   2.22900009       2.72444458E-17
   2.23000002       3.39303532E-17
   2.23099995       4.09652860E-17
   2.23200011       4.82368455E-17
   2.23300004       5.56172950E-17
   2.23399997       6.29758938E-17
   2.23499990       7.01889418E-17
   2.23600006       7.71461726E-17
   2.23699999       8.37530230E-17
   2.23799992       8.99292432E-17
   2.23900008       9.56048735E-17
   2.24000001       1.00714639E-16
   2.24099994       1.05191804E-16
   2.24200010       1.08962007E-16
   2.24300003       1.11937191E-16
   2.24399996       1.14009933E-16
   2.24499989       1.15048462E-16
   2.24600005       1.14893746E-16
   2.24699998       1.13360563E-16
   2.24799991       1.10245223E-16
   2.24900007       1.05342371E-16
   2.25000000       9.84724903E-17
   2.25099993       8.95192991E-17
   2.25200009       7.84734071E-17
   2.25300002       6.54755939E-17
   2.25399995       5.08500977E-17
   2.25500011       3.51175559E-17
   2.25600004       1.89779883E-17
   2.25699997       3.25804440E-18
   2.25799990      -1.11773723E-17
   2.25900006      -2.35415222E-17
   2.25999999      -3.32551885E-17
   2.26099992      -4.00678546E-17
   2.26200008      -4.41471852E-17
   2.26300001      -4.61148659E-17
   2.26399994      -4.70137531E-17
   2.26500010      -4.82018756E-17
   2.26600003      -5.11819129E-17
   2.26699996      -5.73877263E-17
   2.26799989      -6.79595511E-17
   2.26900005      -8.35443684E-17
   2.26999998      -1.04156247E-16
   2.27099991      -1.29123092E-16
   2.27200007      -1.57132076E-16
   2.27300000      -1.86369324E-16
   2.27399993      -2.14732911E-16
   2.27500010      -2.40084845E-16
   2.27600002      -2.60500880E-16
   2.27699995      -2.74477374E-16
   2.27800012      -2.81063214E-16
   2.27900004      -2.79898596E-16
   2.27999997      -2.71160684E-16
   2.28099990      -2.55434220E-16
   2.28200006      -2.33538842E-16
   2.28299999      -2.06353875E-16
   2.28399992      -1.74680309E-16
   2.28500009      -1.39171960E-16
   2.28600001      -1.00351891E-16
   2.28699994      -5.87102557E-17
   2.28800011      -1.48598133E-17
   2.28900003       3.02914566E-17
   2.28999996       7.54010664E-17
   2.29099989       1.18634217E-16
   2.29200006       1.57724430E-16
   2.29299998       1.90166136E-16
   2.29399991       2.13524367E-16
   2.29500008       2.25815013E-16
   2.29600000       2.25885132E-16
   2.29699993       2.13707551E-16
   2.29800010       1.90508642E-16
   2.29900002       1.58668607E-16
   2.29999995       1.21374210E-16
   2.30100012       8.20544639E-17
   2.30200005       4.36831401E-17
   2.30299997       8.07745342E-18
   2.30399990      -2.46526888E-17
   2.30500007      -5.63555901E-17
   2.30599999      -9.06758365E-17
   2.30699992      -1.32435587E-16
   2.30800009      -1.86605064E-16
   2.30900002      -2.57005069E-16
   2.30999994      -3.44967191E-16
   2.31100011      -4.48228395E-16
   2.31200004      -5.60336912E-16
   2.31299996      -6.70790273E-16
   2.31399989      -7.66014458E-16
   2.31500006      -8.31140703E-16
   2.31599998      -8.52369731E-16
   2.31699991      -8.19561869E-16
   2.31800008      -7.28592013E-16
   2.31900001      -5.82984402E-16
   2.31999993      -3.94412342E-16
   2.32100010      -1.81805008E-16
   2.32200003       3.09665617E-17
   2.32299995       2.18589822E-16
   2.32399988       3.58512995E-16
   2.32500005       4.35178635E-16
   2.32599998       4.43529268E-16
   2.32699990       3.91072597E-16
   2.32800007       2.97970653E-16
   2.32900000       1.94908263E-16
   2.32999992       1.18859342E-16
   2.33100009       1.07243973E-16
   2.33200002       1.91290202E-16
   2.33299994       3.89623906E-16
   2.33400011       7.03160642E-16
   2.33500004       1.11224913E-15
   2.33599997       1.57672949E-15
   2.33699989       2.03915876E-15
   2.33800006       2.43098879E-15
   2.33899999       2.68102741E-15
   2.33999991       2.72515487E-15
   2.34100008       2.51604657E-15
   2.34200001       2.03162250E-15
   2.34299994       1.28108662E-15
   2.34400010       3.07722464E-16
   2.34500003      -8.11976159E-16
   2.34599996      -1.97282677E-15
   2.34699988      -3.04870176E-15
   2.34800005      -3.90274793E-15
   2.34899998      -4.39915370E-15
   2.34999990      -4.41547942E-15
   2.35100007      -3.85467076E-15
   2.35200000      -2.65607361E-15
   2.35299993      -8.04985649E-16
   2.35400009       1.65943178E-15
   2.35500002       4.63790010E-15
   2.35599995       7.96631607E-15
   2.35700011       1.14124561E-14
   2.35800004       1.46740750E-14
   2.35899997       1.73784361E-14
   2.35999990       1.90835066E-14
   2.36100006       1.92811922E-14
   2.36199999       1.74029136E-14
   2.36299992       1.28279083E-14
   2.36400008       4.89433467E-15
   2.36500001      -7.08688369E-15
   2.36599994      -2.38161982E-14
   2.36700010      -4.59882613E-14
   2.36800003      -7.42749300E-14
   2.36899996      -1.09309561E-13
   2.36999989      -1.51674287E-13
   2.37100005      -2.01891889E-13
   2.37199998      -2.60423221E-13
   2.37299991      -3.27671158E-13
   2.37400007      -4.03991131E-13
   2.37500000      -4.89707829E-13
   2.37599993      -5.85137407E-13
   2.37700009      -6.90612769E-13
   2.37800002      -8.06510403E-13
   2.37899995      -9.33276351E-13
   2.38000011      -1.07144849E-12
   2.38100004      -1.22167218E-12
   2.38199997      -1.38470821E-12
   2.38299990      -1.56143100E-12
   2.38400006      -1.75281491E-12
   2.38499999      -1.95991118E-12
   2.38599992      -2.18381454E-12
   2.38700008      -2.42561982E-12
   2.38800001      -2.68637976E-12
   2.38899994      -2.96705651E-12
   2.39000010      -3.26848097E-12
   2.39100003      -3.59132190E-12
   2.39199996      -3.93606415E-12
   2.39299989      -4.30300804E-12
   2.39400005      -4.69228345E-12
   2.39499998      -5.10388823E-12
   2.39599991      -5.53774257E-12
   2.39700007      -5.99376061E-12
   2.39800000      -6.47193280E-12
   2.39899993      -6.97240226E-12
   2.40000010      -7.49554585E-12
   2.40100002      -8.04202972E-12
   2.40199995      -8.61284481E-12
   2.40300012      -9.20931473E-12
   2.40400004      -9.83306665E-12
   2.40499997      -1.04859749E-11
   2.40599990      -1.11700640E-11
   2.40700006      -1.18874034E-11
   2.40799999      -1.26399863E-11
   2.40899992      -1.34296142E-11
   2.41000009      -1.42577989E-11
   2.41100001      -1.51256976E-11
   2.41199994      -1.60340803E-11
   2.41300011      -1.69833488E-11
   2.41400003      -1.79736070E-11
   2.41499996      -1.90047700E-11
   2.41599989      -2.00766955E-11
   2.41700006      -2.11893385E-11
   2.41799998      -2.23429088E-11
   2.41899991      -2.35379858E-11
   2.42000008      -2.47756086E-11
   2.42100000      -2.60573074E-11
   2.42199993      -2.73850786E-11
   2.42300010      -2.87613024E-11
   2.42400002      -3.01886086E-11
   2.42499995      -3.16697293E-11
   2.42600012      -3.32073362E-11
   2.42700005      -3.48038716E-11
   2.42799997      -3.64614380E-11
   2.42899990      -3.81817078E-11
   2.43000007      -3.99659195E-11
   2.43099999      -4.18149369E-11
   2.43199992      -4.37293188E-11
   2.43300009      -4.57094744E-11
   2.43400002      -4.77558271E-11
   2.43499994      -4.98689354E-11
   2.43600011      -5.20496736E-11
   2.43700004      -5.42992977E-11
   2.43799996      -5.66195181E-11
   2.43899989      -5.90125032E-11
   2.44000006      -6.14808274E-11
   2.44099998      -6.40273320E-11
   2.44199991      -6.66550495E-11
   2.44300008      -6.93670191E-11
   2.44400001      -7.21661828E-11
   2.44499993      -7.50552884E-11
   2.44600010      -7.80367992E-11
   2.44700003      -8.11128595E-11
   2.44799995      -8.42853634E-11
   2.44899988      -8.75559972E-11
   2.45000005      -9.09263428E-11
   2.45099998      -9.43979964E-11
   2.45199990      -9.79726716E-11
   2.45300007      -1.01652312E-10
   2.45400000      -1.05439157E-10
   2.45499992      -1.09335763E-10
   2.45600009      -1.13345049E-10
   2.45700002      -1.17470242E-10
   2.45799994      -1.21714791E-10
   2.45900011      -1.26082325E-10
   2.46000004      -1.30576466E-10
   2.46099997      -1.35200670E-10
   2.46199989      -1.39958170E-10
   2.46300006      -1.44851964E-10
   2.46399999      -1.49884744E-10
   2.46499991      -1.55058952E-10
   2.46600008      -1.60376781E-10
   2.46700001      -1.65840314E-10
   2.46799994      -1.71451589E-10
   2.46900010      -1.77212828E-10
   2.47000003      -1.83126611E-10
   2.47099996      -1.89195937E-10
   2.47199988      -1.95424343E-10
   2.47300005      -2.01816008E-10
   2.47399998      -2.08375608E-10
   2.47499990      -2.15108389E-10
   2.47600007      -2.22019916E-10
   2.47700000      -2.29116115E-10
   2.47799993      -2.36402814E-10
   2.47900009      -2.43885773E-10
   2.48000002      -2.51570376E-10
   2.48099995      -2.59461591E-10
   2.48200011      -2.67563860E-10
   2.48300004      -2.75881235E-10
   2.48399997      -2.84417184E-10
   2.48499990      -2.93174957E-10
   2.48600006      -3.02157493E-10
   2.48699999      -3.11367737E-10
   2.48799992      -3.20808852E-10
   2.48900008      -3.30484390E-10
   2.49000001      -3.40398265E-10
   2.49099994      -3.50555113E-10
   2.49200010      -3.60960234E-10
   2.49300003      -3.71619679E-10
   2.49399996      -3.82540055E-10
   2.49499989      -3.93728355E-10
   2.49600005      -4.05191963E-10
   2.49699998      -4.16938484E-10
   2.49799991      -4.28975494E-10
   2.49900007      -4.41310377E-10
   2.50000000      -4.53950322E-10
   2.50099993      -4.66902128E-10
   2.50200009      -4.80172235E-10
   2.50300002      -4.93766583E-10
   2.50399995      -5.07690834E-10
   2.50500011      -5.21950316E-10
   2.50600004      -5.36550082E-10
   2.50699997      -5.51495127E-10
   2.50799990      -5.66790781E-10
   2.50900006      -5.82442150E-10
   2.50999999      -5.98455174E-10
   2.51099992      -6.14836071E-10
   2.51200008      -6.31591612E-10
   2.51300001      -6.48729404E-10
   2.51399994      -6.66257549E-10
   2.51500010      -6.84185097E-10
   2.51600003      -7.02521818E-10
   2.51699996      -7.21277982E-10
   2.51799989      -7.40464079E-10
   2.51900005      -7.60091101E-10
   2.51999998      -7.80169651E-10
   2.52099991      -8.00710220E-10
   2.52200007      -8.21722690E-10
   2.52300000      -8.43216275E-10
   2.52399993      -8.65199412E-10
   2.52500010      -8.87679652E-10
   2.52600002      -9.10663545E-10
   2.52699995      -9.34157085E-10
   2.52800012      -9.58165880E-10
   2.52900004      -9.82695592E-10
   2.52999997      -1.00775277E-09
   2.53099990      -1.03334474E-09
   2.53200006      -1.05948061E-09
   2.53299999      -1.08617138E-09
   2.53399992      -1.11342968E-09
   2.53500009      -1.14127008E-09
   2.53600001      -1.16970800E-09
   2.53699994      -1.19875965E-09
   2.53800011      -1.22844213E-09
   2.53900003      -1.25877142E-09
   2.53999996      -1.28976285E-09
   2.54099989      -1.32143041E-09
   2.54200006      -1.35378664E-09
   2.54299998      -1.38684264E-09
   2.54399991      -1.42060841E-09
   2.54500008      -1.45509294E-09
   2.54600000      -1.49030488E-09
   2.54699993      -1.52625346E-09
   2.54800010      -1.56294866E-09
   2.54900002      -1.60040192E-09
   2.54999995      -1.63862612E-09
   2.55100012      -1.67763659E-09
   2.55200005      -1.71745018E-09
   2.55299997      -1.75808523E-09
   2.55399990      -1.79956072E-09
   2.55500007      -1.84189597E-09
   2.55599999      -1.88510985E-09
   2.55699992      -1.92921923E-09
   2.55800009      -1.97424055E-09
   2.55900002      -2.02018691E-09
   2.55999994      -2.06707074E-09
   2.56100011      -2.11490248E-09
   2.56200004      -2.16369256E-09
   2.56299996      -2.21345164E-09
   2.56399989      -2.26419061E-09
   2.56500006      -2.31592301E-09
   2.56599998      -2.36866482E-09
   2.56699991      -2.42243448E-09
   2.56800008      -2.47725396E-09
   2.56900001      -2.53314725E-09
   2.56999993      -2.59013988E-09
   2.57100010      -2.64825828E-09
   2.57200003      -2.70752776E-09
   2.57299995      -2.76797252E-09
   2.57399988      -2.82961432E-09
   2.57500005      -2.89247248E-09
   2.57599998      -2.95656322E-09
   2.57699990      -3.02190006E-09
   2.57800007      -3.08849368E-09
   2.57900000      -3.15635451E-09
   2.57999992      -3.22549099E-09
   2.58100009      -3.29591376E-09
   2.58200002      -3.36763373E-09
   2.58299994      -3.44066442E-09
   2.58400011      -3.51502272E-09
   2.58500004      -3.59072971E-09
   2.58599997      -3.66780917E-09
   2.58699989      -3.74628950E-09
   2.58800006      -3.82620202E-09
   2.58899999      -3.90758093E-09
   2.58999991      -3.99046041E-09
   2.59100008      -4.07487555E-09
   2.59200001      -4.16085788E-09
   2.59299994      -4.24843805E-09
   2.59400010      -4.33764225E-09
   2.59500003      -4.42849313E-09
   2.59599996      -4.52101068E-09
   2.59699988      -4.61521266E-09
   2.59800005      -4.71111417E-09
   2.59899998      -4.80873208E-09
   2.59999990      -4.90808238E-09
   2.60100007      -5.00918507E-09
   2.60200000      -5.11205922E-09
   2.60299993      -5.21673060E-09
   2.60400009      -5.32322719E-09
   2.60500002      -5.43158096E-09
   2.60599995      -5.54182655E-09
   2.60700011      -5.65400349E-09
   2.60800004      -5.76815085E-09
   2.60899997      -5.88430993E-09
   2.60999990      -6.00252248E-09
   2.61100006      -6.12282980E-09
   2.61199999      -6.24527052E-09
   2.61299992      -6.36988284E-09
   2.61400008      -6.49670184E-09
   2.61500001      -6.62576172E-09
   2.61599994      -6.75709266E-09
   2.61700010      -6.89072621E-09
   2.61800003      -7.02669345E-09
   2.61899996      -7.16502546E-09
   2.61999989      -7.30575689E-09
   2.62100005      -7.44892414E-09
   2.62199998      -7.59456764E-09
   2.62299991      -7.74272912E-09
   2.62400007      -7.89345389E-09
   2.62500000      -8.04678990E-09
   2.62599993      -8.20278423E-09
   2.62700009      -8.36148573E-09
   2.62800002      -8.52294058E-09
   2.62899995      -8.68719141E-09
   2.63000011      -8.85428353E-09
   2.63100004      -9.02425601E-09
   2.63199997      -9.19715148E-09
   2.63299990      -9.37301259E-09
   2.63400006      -9.55188373E-09
   2.63499999      -9.73381109E-09
   2.63599992      -9.91884352E-09
   2.63700008      -1.01070317E-08
   2.63800001      -1.02984270E-08
   2.63899994      -1.04930855E-08
   2.64000010      -1.06910631E-08
   2.64100003      -1.08924159E-08
   2.64199996      -1.10971987E-08
   2.64299989      -1.13054641E-08
   2.64400005      -1.15172583E-08
   2.64499998      -1.17326273E-08
   2.64599991      -1.19516121E-08
   2.64700007      -1.21742527E-08
   2.64800000      -1.24005890E-08
   2.64899993      -1.26306583E-08
   2.65000010      -1.28644988E-08
   2.65100002      -1.31021487E-08
   2.65199995      -1.33436462E-08
   2.65300012      -1.35890357E-08
   2.65400004      -1.38383589E-08
   2.65499997      -1.40916603E-08
   2.65599990      -1.43489887E-08
   2.65700006      -1.46103885E-08
   2.65799999      -1.48759094E-08
   2.65899992      -1.51455968E-08
   2.66000009      -1.54194915E-08
   2.66100001      -1.56976316E-08
   2.66199994      -1.59800546E-08
   2.66300011      -1.62667906E-08
   2.66400003      -1.65578786E-08
   2.66499996      -1.68533489E-08
   2.66599989      -1.71532459E-08
   2.66700006      -1.74576140E-08
   2.66799998      -1.77665189E-08
   2.66899991      -1.80800264E-08
   2.67000008      -1.83982216E-08
   2.67100000      -1.87211935E-08
   2.67199993      -1.90490255E-08
   2.67300010      -1.93818135E-08
   2.67400002      -1.97196410E-08
   2.67499995      -2.00625951E-08
   2.67600012      -2.04107540E-08
   2.67700005      -2.07641904E-08
   2.67799997      -2.11229825E-08
   2.67899990      -2.14872067E-08
   2.68000007      -2.18569465E-08
   2.68099999      -2.22322907E-08
   2.68199992      -2.26133405E-08
   2.68300009      -2.30002062E-08
   2.68400002      -2.33930084E-08
   2.68499994      -2.37918751E-08
   2.68600011      -2.41969484E-08
   2.68700004      -2.46083705E-08
   2.68799996      -2.50262921E-08
   2.68899989      -2.54508628E-08
   2.69000006      -2.58822261E-08
   2.69099998      -2.63205191E-08
   2.69199991      -2.67658802E-08
   2.69300008      -2.72184355E-08
   2.69400001      -2.76783112E-08
   2.69499993      -2.81456369E-08
   2.69600010      -2.86205335E-08
   2.69700003      -2.91031359E-08
   2.69799995      -2.95935756E-08
   2.69899988      -3.00919929E-08
   2.70000005      -3.05985246E-08
   2.70099998      -3.11133199E-08
   2.70199990      -3.16365458E-08
   2.70300007      -3.21683657E-08
   2.70400000      -3.27089609E-08
   2.70499992      -3.32585266E-08
   2.70600009      -3.38172441E-08
   2.70700002      -3.43853017E-08
   2.70799994      -3.49628735E-08
   2.70900011      -3.55501157E-08
   2.71000004      -3.61471706E-08
   2.71099997      -3.67541801E-08
   2.71199989      -3.73712723E-08
   2.71300006      -3.79985821E-08
   2.71399999      -3.86362586E-08
   2.71499991      -3.92844655E-08
   2.71600008      -3.99433979E-08
   2.71700001      -4.06132727E-08
   2.71799994      -4.12943137E-08
   2.71900010      -4.19867625E-08
   2.72000003      -4.26908571E-08
   2.72099996      -4.34068355E-08
   2.72199988      -4.41349215E-08
   2.72300005      -4.48753177E-08
   2.72399998      -4.56282301E-08
   2.72499990      -4.63938257E-08
   2.72600007      -4.71722750E-08
   2.72700000      -4.79637521E-08
   2.72799993      -4.87684240E-08
   2.72900009      -4.95864754E-08
   2.73000002      -5.04181017E-08
   2.73099995      -5.12635161E-08
   2.73200011      -5.21229460E-08
   2.73300004      -5.29966435E-08
   2.73399997      -5.38848575E-08
   2.73499990      -5.47878685E-08
   2.73600006      -5.57059430E-08
   2.73699999      -5.66393545E-08
   2.73799992      -5.75883661E-08
   2.73900008      -5.85532192E-08
   2.74000001      -5.95341554E-08
   2.74099994      -6.05313915E-08
   2.74200010      -6.15451512E-08
   2.74300003      -6.25756371E-08
   2.74399996      -6.36230624E-08
   2.74499989      -6.46876614E-08
   2.74600005      -6.57696546E-08
   2.74699998      -6.68692977E-08
   2.74799991      -6.79868535E-08
   2.74900007      -6.91225708E-08
   2.75000000      -7.02767338E-08
   2.75099993      -7.14496267E-08
   2.75200009      -7.26414982E-08
   2.75300002      -7.38526182E-08
   2.75399995      -7.50832498E-08
   2.75500011      -7.63336203E-08
   2.75600004      -7.76039570E-08
   2.75699997      -7.88944590E-08
   2.75799990      -8.02053250E-08
   2.75900006      -8.15367258E-08
   2.75999999      -8.28888673E-08
   2.76099992      -8.42619556E-08
   2.76200008      -8.56561897E-08
   2.76300001      -8.70718040E-08
   2.76399994      -8.85090543E-08
   2.76500010      -8.99681964E-08
   2.76600003      -9.14494862E-08
   2.76699996      -9.29531794E-08
   2.76799989      -9.44795389E-08
   2.76900005      -9.60288062E-08
   2.76999998      -9.76012373E-08
   2.77099991      -9.91970452E-08
   2.77200007      -1.00816450E-07
   2.77300000      -1.02459644E-07
   2.77399993      -1.04126805E-07
   2.77500010      -1.05818081E-07
   2.77600002      -1.07533623E-07
   2.77699995      -1.09273557E-07
   2.77800012      -1.11038013E-07
   2.77900004      -1.12827166E-07
   2.77999997      -1.14641189E-07
   2.78099990      -1.16480294E-07
   2.78200006      -1.18344722E-07
   2.78299999      -1.20234731E-07
   2.78399992      -1.22150595E-07
   2.78500009      -1.24092551E-07
   2.78600001      -1.26060826E-07
   2.78699994      -1.28055603E-07
   2.78800011      -1.30077026E-07
   2.78900003      -1.32125265E-07
   2.78999996      -1.34200363E-07
   2.79099989      -1.36302418E-07
   2.79200006      -1.38431531E-07
   2.79299998      -1.40587844E-07
   2.79399991      -1.42771498E-07
   2.79500008      -1.44982721E-07
   2.79600000      -1.47221741E-07
   2.79699993      -1.49488898E-07
   2.79800010      -1.51784462E-07
   2.79900002      -1.54108761E-07
   2.79999995      -1.56462065E-07
   2.80100012      -1.58844600E-07
   2.80200005      -1.61256537E-07
   2.80299997      -1.63698061E-07
   2.80399990      -1.66169301E-07
   2.80500007      -1.68670383E-07
   2.80599999      -1.71201478E-07
   2.80699992      -1.73762743E-07
   2.80800009      -1.76354391E-07
   2.80900002      -1.78976578E-07
   2.80999994      -1.81629517E-07
   2.81100011      -1.84313407E-07
   2.81200004      -1.87028505E-07
   2.81299996      -1.89775051E-07
   2.81399989      -1.92553316E-07
   2.81500006      -1.95363583E-07
   2.81599998      -1.98206152E-07
   2.81699991      -2.01081264E-07
   2.81800008      -2.03989174E-07
   2.81900001      -2.06930068E-07
   2.81999993      -2.09904130E-07
   2.82100010      -2.12911516E-07
   2.82200003      -2.15952468E-07
   2.82299995      -2.19027228E-07
   2.82399988      -2.22136038E-07
   2.82500005      -2.25279138E-07
   2.82599998      -2.28456813E-07
   2.82699990      -2.31669276E-07
   2.82800007      -2.34916783E-07
   2.82900000      -2.38199576E-07
   2.82999992      -2.41517938E-07
   2.83100009      -2.44872126E-07
   2.83200002      -2.48262438E-07
   2.83299994      -2.51689187E-07
   2.83400011      -2.55152713E-07
   2.83500004      -2.58653387E-07
   2.83599997      -2.62191492E-07
   2.83699989      -2.65767255E-07
   2.83800006      -2.69380905E-07
   2.83899999      -2.73032697E-07
   2.83999991      -2.76722716E-07
   2.84100008      -2.80451218E-07
   2.84200001      -2.84218373E-07
   2.84299994      -2.88024438E-07
   2.84400010      -2.91869867E-07
   2.84500003      -2.95755029E-07
   2.84599996      -2.99680494E-07
   2.84699988      -3.03646800E-07
   2.84800005      -3.07654489E-07
   2.84899998      -3.11704042E-07
   2.84999990      -3.15795887E-07
   2.85100007      -3.19930308E-07
   2.85200000      -3.24107617E-07
   2.85299993      -3.28328014E-07
   2.85400009      -3.32591640E-07
   2.85500002      -3.36898808E-07
   2.85599995      -3.41249745E-07