   2.00000000       0.00000000    
   2.00099993       0.00000000    
   2.00200009       0.00000000    
   2.00300002       0.00000000    
   2.00399995       0.00000000    
   2.00500011      -1.74426169E-25
   2.00600004      -1.68319606E-24
   2.00699997      -8.39633729E-24
   2.00799990      -2.87988252E-23
   2.00900006      -7.63916303E-23
   2.00999999      -1.67273298E-22
   2.01099992      -3.15712737E-22
   2.01200008      -5.32731275E-22
   2.01300001      -8.39322457E-22
   2.01399994      -1.31253247E-21
   2.01500010      -2.18224099E-21
   2.01600003      -3.98054093E-21
   2.01699996      -7.70904220E-21
   2.01799989      -1.49352694E-20
   2.01900005      -2.76736344E-20
   2.01999998      -4.78832723E-20
   2.02099991      -7.64730350E-20
   2.02200007      -1.11883067E-19
   2.02300000      -1.48601795E-19
   2.02399993      -1.76274153E-19
   2.02500010      -1.80178187E-19
   2.02600002      -1.43607136E-19
   2.02699995      -5.20360421E-20
   2.02800012       1.01941054E-19
   2.02900004       3.14629003E-19
   2.02999997       5.69975263E-19
   2.03099990       8.41938911E-19
   2.03200006       1.09982803E-18
   2.03299999       1.31442153E-18
   2.03399992       1.46208226E-18
   2.03500009       1.52492276E-18
   2.03600001       1.48723331E-18
   2.03699994       1.33082659E-18
   2.03800011       1.03333025E-18
   2.03900003       5.72698135E-19
   2.03999996      -6.17617636E-20
   2.04099989      -8.55597730E-19
   2.04200006      -1.75958315E-18
   2.04299998      -2.69150592E-18
   2.04399991      -3.55325813E-18
   2.04500008      -4.26079410E-18
   2.04600000      -4.77764054E-18
   2.04699993      -5.13828921E-18
   2.04800010      -5.44840708E-18
   2.04900002      -5.85503336E-18
   2.04999995      -6.49005536E-18
   2.05100012      -7.40088089E-18
   2.05200005      -8.48938771E-18
   2.05299997      -9.48115245E-18
   2.05399990      -9.94107976E-18
   2.05500007      -9.34043662E-18
   2.05599999      -7.16723049E-18
   2.05699992      -3.06018652E-18
   2.05800009       3.06119361E-18
   2.05900002       1.09006175E-17
   2.05999994       1.97503979E-17
   2.06100011       2.85377708E-17
   2.06200004       3.59591526E-17
   2.06299996       4.06930576E-17
   2.06399989       4.16637971E-17
   2.06500006       3.83102447E-17
   2.06599998       3.08014465E-17
   2.06699991       2.01383638E-17
   2.06800008       8.09295148E-18
   2.06900001      -3.03728024E-18
   2.06999993      -1.08424502E-17
   2.07100010      -1.33219150E-17
   2.07200003      -9.41938605E-18
   2.07299995       5.41786189E-19
   2.07399988       1.46306065E-17
   2.07500005       2.93641871E-17
   2.07599998       4.00733868E-17
   2.07699990       4.15455499E-17
   2.07800007       2.88573173E-17
   2.07900000      -1.72714754E-18
   2.07999992      -5.19318679E-17
   2.08100009      -1.20847289E-16
   2.08200002      -2.04609411E-16
   2.08299994      -2.96435591E-16
   2.08400011      -3.87028121E-16
   2.08500004      -4.65314532E-16
   2.08599997      -5.19461007E-16
   2.08699989      -5.38068362E-16
   2.08800006      -5.11441088E-16
   2.08899999      -4.32803211E-16
   2.08999991      -2.99331359E-16
   2.09100008      -1.12876497E-16
   2.09200001       1.19728160E-16
   2.09299994       3.86838518E-16
   2.09400010       6.72656868E-16
   2.09500003       9.58321747E-16
   2.09599996       1.22332426E-15
   2.09699988       1.44710719E-15
   2.09800005       1.61069541E-15
   2.09899998       1.69821996E-15
   2.09999990       1.69822334E-15
   2.10100007       1.60466527E-15
   2.10200000       1.41756586E-15
   2.10299993       1.14323878E-15
   2.10400009       7.94068718E-16
   2.10500002       3.87807179E-16
   2.10599995      -5.36119909E-17
   2.10700011      -5.05674328E-16
   2.10800004      -9.43176163E-16
   2.10899997      -1.34220830E-15
   2.10999990      -1.68199155E-15
   2.11100006      -1.94632988E-15
   2.11199999      -2.12449839E-15
   2.11299992      -2.21149185E-15
   2.11400008      -2.20767872E-15
   2.11500001      -2.11802494E-15
   2.11599994      -1.95111922E-15
   2.11700010      -1.71824858E-15
   2.11800003      -1.43270446E-15
   2.11899996      -1.10940352E-15
   2.11999989      -7.64767360E-16
   2.12100005      -4.16705508E-16
   2.12199998      -8.44798302E-17
   2.12299991       2.11758594E-16
   2.12400007       4.51896471E-16
   2.12500000       6.17270284E-16
   2.12599993       6.92450440E-16
   2.12700009       6.67178312E-16
   2.12800002       5.38167201E-16
   2.12899995       3.10466798E-16
   2.13000011      -1.87216801E-18
   2.13100004      -3.76020213E-16
   2.13199997      -7.81562171E-16
   2.13299990      -1.18263259E-15
   2.13400006      -1.54083943E-15
   2.13499999      -1.81871145E-15
   2.13599992      -1.98329376E-15
   2.13700008      -2.00945925E-15
   2.13800001      -1.88248859E-15
   2.13899994      -1.59952167E-15
   2.14000010      -1.16962216E-15
   2.14100003      -6.12361463E-16
   2.14199996       4.49525216E-17
   2.14299989       7.71106026E-16
   2.14400005       1.53543314E-15
   2.14499998       2.31239550E-15
   2.14599991       3.08579079E-15
   2.14700007       3.85213771E-15
   2.14800000       4.62285383E-15
   2.14899993       5.42491314E-15
   2.15000010       6.29972708E-15
   2.15100002       7.30011365E-15
   2.15199995       8.48534483E-15
   2.15300012       9.91447660E-15
   2.15400004       1.16384301E-14
   2.15499997       1.36915388E-14
   2.15599990       1.60835412E-14
   2.15700006       1.87930387E-14
   2.15799999       2.17634206E-14
   2.15899992       2.49019945E-14
   2.16000009       2.80826642E-14
   2.16100001       3.11520761E-14
   2.16199994       3.39386857E-14
   2.16300011       3.62638725E-14
   2.16400003       3.79540522E-14
   2.16499996       3.88526728E-14
   2.16599989       3.88311751E-14
   2.16700006       3.77980524E-14
   2.16799998       3.57055829E-14
   2.16899991       3.25537869E-14
   2.17000008       2.83915771E-14
   2.17100000       2.33150342E-14
   2.17199993       1.74630276E-14
   2.17300010       1.10104483E-14
   2.17400002       4.15954291E-15
   2.17499995      -2.87009321E-15
   2.17600012      -9.85213667E-15
   2.17700005      -1.65640986E-14
   2.17799997      -2.27970956E-14
   2.17899990      -2.83643213E-14
   2.18000007      -3.31077295E-14
   2.18099999      -3.69026844E-14
   2.18199992      -3.96603526E-14
   2.18300009      -4.13277777E-14
   2.18400002      -4.18856776E-14
   2.18499994      -4.13442033E-14
   2.18600011      -3.97370633E-14
   2.18700004      -3.71147510E-14
   2.18799996      -3.35377274E-14
   2.18899989      -2.90705943E-14
   2.19000006      -2.37780681E-14
   2.19099998      -1.77234275E-14
   2.19199991      -1.09694731E-14
   2.19300008      -3.58174065E-15
   2.19400001       4.36679281E-15
   2.19499993       1.27905092E-14
   2.19600010       2.15863534E-14
   2.19700003       3.06301852E-14
   2.19799995       3.97746987E-14
   2.19899988       4.88489389E-14
   2.20000005       5.76592607E-14
   2.20099998       6.59913544E-14
   2.20199990       7.36130246E-14
   2.20300007       8.02775137E-14
   2.20400000       8.57270797E-14
   2.20499992       8.96966963E-14
   2.20600009       9.19176641E-14
   2.20700002       9.21210062E-14
   2.20799994       9.00401173E-14
   2.20900011       8.54128508E-14
   2.21000004       7.79826778E-14
   2.21099997       6.74993102E-14
   2.21199989       5.37191344E-14
   2.21300006       3.64059098E-14
   2.21399999       1.53321061E-14
   2.21499991      -9.71891448E-15
   2.21600008      -3.89499664E-14
   2.21700001      -7.25468744E-14
   2.21799994      -1.10675554E-13
   2.21900010      -1.53479754E-13
   2.22000003      -2.01079916E-13
   2.22099996      -2.53572825E-13
   2.22199988      -3.11031528E-13
   2.22300005      -3.73506049E-13
   2.22399998      -4.41022300E-13
   2.22499990      -5.13582287E-13
   2.22600007      -5.91163295E-13
   2.22700000      -6.73718893E-13
   2.22799993      -7.61181808E-13
   2.22900009      -8.53468012E-13
   2.23000002      -9.50483832E-13
   2.23099995      -1.05213418E-12
   2.23200011      -1.15832983E-12
   2.23300004      -1.26899478E-12
   2.23399997      -1.38406962E-12
   2.23499990      -1.50351357E-12
   2.23600006      -1.62730376E-12
   2.23699999      -1.75543185E-12
   2.23799992      -1.88790194E-12
   2.23900008      -2.02472587E-12
   2.24000001      -2.16592174E-12
   2.24099994      -2.31151036E-12
   2.24200010      -2.46151363E-12
   2.24300003      -2.61595194E-12
   2.24399996      -2.77484220E-12
   2.24499989      -2.93819526E-12
   2.24600005      -3.10601479E-12
   2.24699998      -3.27829582E-12
   2.24799991      -3.45502359E-12
   2.24900007      -3.63617188E-12
   2.25000000      -3.82170337E-12
   2.25099993      -4.01156799E-12
   2.25200009      -4.20569829E-12
   2.25300002      -4.40400884E-12
   2.25399995      -4.60638949E-12
   2.25500011      -4.81270492E-12
   2.25600004      -5.02279034E-12
   2.25699997      -5.23645276E-12
   2.25799990      -5.45347101E-12
   2.25900006      -5.67359397E-12
   2.25999999      -5.89654454E-12
   2.26099992      -6.12201826E-12
   2.26200008      -6.34968163E-12
   2.26300001      -6.57917991E-12
   2.26399994      -6.81012885E-12
   2.26500010      -7.04212556E-12
   2.26600003      -7.27474808E-12
   2.26699996      -7.50756141E-12
   2.26799989      -7.74012191E-12
   2.26900005      -7.97198505E-12
   2.26999998      -8.20270588E-12
   2.27099991      -8.43184637E-12
   2.27200007      -8.65897198E-12
   2.27300000      -8.88366117E-12
   2.27399993      -9.10550975E-12
   2.27500010      -9.32412828E-12
   2.27600002      -9.53915506E-12
   2.27699995      -9.75025703E-12
   2.27800012      -9.95713408E-12
   2.27900004      -1.01595225E-11
   2.27999997      -1.03571908E-11
   2.28099990      -1.05499411E-11
   2.28200006      -1.07376009E-11
   2.28299999      -1.09200288E-11
   2.28399992      -1.10971059E-11
   2.28500009      -1.12687385E-11
   2.28600001      -1.14348565E-11
   2.28699994      -1.15954087E-11
   2.28800011      -1.17503568E-11
   2.28900003      -1.18996740E-11
   2.28999996      -1.20433316E-11
   2.29099989      -1.21812950E-11
   2.29200006      -1.23135200E-11
   2.29299998      -1.24399449E-11
   2.29399991      -1.25604943E-11
   2.29500008      -1.26750685E-11
   2.29600000      -1.27835511E-11
   2.29699993      -1.28857983E-11
   2.29800010      -1.29816427E-11
   2.29900002      -1.30708786E-11
   2.29999995      -1.31532623E-11
   2.30100012      -1.32285094E-11
   2.30200005      -1.32962894E-11
   2.30299997      -1.33562276E-11
   2.30399990      -1.34079119E-11
   2.30500007      -1.34508958E-11
   2.30599999      -1.34847099E-11
   2.30699992      -1.35088711E-11
   2.30800009      -1.35228807E-11
   2.30900002      -1.35262383E-11
   2.30999994      -1.35184346E-11
   2.31100011      -1.34989468E-11
   2.31200004      -1.34672308E-11
   2.31299996      -1.34226996E-11
   2.31399989      -1.33647147E-11
   2.31500006      -1.32925598E-11
   2.31599998      -1.32054237E-11
   2.31699991      -1.31023872E-11
   2.31800008      -1.29824190E-11
   2.31900001      -1.28443723E-11
   2.31999993      -1.26870042E-11
   2.32100010      -1.25089990E-11
   2.32200003      -1.23089950E-11
   2.32299995      -1.20856285E-11
   2.32399988      -1.18375674E-11
   2.32500005      -1.15635574E-11
   2.32599998      -1.12624476E-11
   2.32699990      -1.09332239E-11
   2.32800007      -1.05750261E-11
   2.32900000      -1.01871549E-11
   2.32999992      -9.76906663E-12
   2.33100009      -9.32035091E-12
   2.33200002      -8.84068426E-12
   2.33299994      -8.32975529E-12
   2.33400011      -7.78717282E-12
   2.33500004      -7.21234921E-12
   2.33599997      -6.60437373E-12
   2.33699989      -5.96188507E-12
   2.33800006      -5.28296981E-12
   2.33899999      -4.56509613E-12
   2.33999991      -3.80510901E-12
   2.34100008      -2.99930111E-12
   2.34200001      -2.14357113E-12
   2.34299994      -1.23367180E-12
   2.34400010      -2.65549843E-13
   2.34500003       7.64246793E-13
   2.34599996       1.85811718E-12
   2.34699988       3.01694628E-12
   2.34800005       4.23969020E-12
   2.34899998       5.52305380E-12
   2.34999990       6.86132835E-12
   2.35100007       8.24643392E-12
   2.35200000       9.66819767E-12
   2.35299993       1.11149111E-11
   2.35400009       1.25741553E-11
   2.35500002       1.40338670E-11
   2.35599995       1.54836127E-11
   2.35700011       1.69159894E-11
   2.35800004       1.83280630E-11
   2.35899997       1.97227425E-11
   2.35999990       2.11100009E-11
   2.36100006       2.25077873E-11
   2.36199999       2.39426031E-11
   2.36299992       2.54496320E-11
   2.36400008       2.70723617E-11
   2.36500001       2.88617394E-11
   2.36599994       3.08748860E-11
   2.36700010       3.31733599E-11
   2.36800003       3.58211967E-11
   2.36899996       3.88827338E-11
   2.36999989       4.24204283E-11
   2.37100005       4.64927818E-11
   2.37199998       5.11525579E-11
   2.37299991       5.64453345E-11
   2.37400007       6.24085714E-11
   2.37500000       6.90711724E-11
   2.37599993       7.64536212E-11
   2.37700009       8.45686160E-11
   2.37800002       9.34221797E-11
   2.37899995       1.03015145E-10
   2.38000011       1.13344806E-10
   2.38100004       1.24406707E-10
   2.38199997       1.36196360E-10
   2.38299990       1.48710780E-10
   2.38400006       1.61949773E-10
   2.38499999       1.75916753E-10
   2.38599992       1.90619298E-10
   2.38700008       2.06069287E-10
   2.38800001       2.22282553E-10
   2.38899994       2.39278514E-10
   2.39000010       2.57079302E-10
   2.39100003       2.75709067E-10
   2.39199996       2.95192953E-10
   2.39299989       3.15556303E-10
   2.39400005       3.36824013E-10
   2.39499998       3.59020036E-10
   2.39599991       3.82167076E-10
   2.39700007       4.06286255E-10
   2.39800000       4.31397418E-10
   2.39899993       4.57518801E-10
   2.40000010       4.84667695E-10
   2.40100002       5.12860199E-10
   2.40199995       5.42111800E-10
   2.40300012       5.72437153E-10
   2.40400004       6.03850636E-10
   2.40499997       6.36366015E-10
   2.40599990       6.69997002E-10
   2.40700006       7.04757142E-10
   2.40799999       7.40660089E-10
   2.40899992       7.77719777E-10
   2.41000009       8.15950973E-10
   2.41100001       8.55368998E-10
   2.41199994       8.95990726E-10
   2.41300011       9.37834366E-10
   2.41400003       9.80920234E-10
   2.41499996       1.02527054E-09
   2.41599989       1.07090936E-09
   2.41700006       1.11786302E-09
   2.41799998       1.16615906E-09
   2.41899991       1.21582600E-09
   2.42000008       1.26689237E-09
   2.42100000       1.31938682E-09
   2.42199993       1.37333633E-09
   2.42300010       1.42876710E-09
   2.42400002       1.48570334E-09
   2.42499995       1.54416691E-09
   2.42600012       1.60417801E-09
   2.42700005       1.66575553E-09
   2.42799997       1.72891768E-09
   2.42899990       1.79368198E-09
   2.43000007       1.86006799E-09
   2.43099999       1.92809635E-09
   2.43199992       1.99779127E-09
   2.43300009       2.06917972E-09
   2.43400002       2.14229368E-09
   2.43499994       2.21716778E-09
   2.43600011       2.29384067E-09
   2.43700004       2.37235365E-09
   2.43799996       2.45274934E-09
   2.43899989       2.53507104E-09
   2.44000006       2.61936206E-09
   2.44099998       2.70566369E-09
   2.44199991       2.79401480E-09
   2.44300008       2.88445157E-09
   2.44400001       2.97700642E-09
   2.44499993       3.07170889E-09
   2.44600010       3.16858584E-09
   2.44700003       3.26766325E-09
   2.44799995       3.36896600E-09
   2.44899988       3.47252049E-09
   2.45000005       3.57835539E-09
   2.45099998       3.68650310E-09
   2.45199990       3.79700138E-09
   2.45300007       3.90989241E-09
   2.45400000       4.02522371E-09
   2.45499992       4.14304857E-09
   2.45600009       4.26342517E-09
   2.45700002       4.38641479E-09
   2.45799994       4.51208271E-09
   2.45900011       4.64049554E-09
   2.46000004       4.77171902E-09
   2.46099997       4.90582019E-09
   2.46199989       5.04286302E-09
   2.46300006       5.18291010E-09
   2.46399999       5.32602140E-09
   2.46499991       5.47225465E-09
   2.46600008       5.62166491E-09
   2.46700001       5.77430814E-09
   2.46799994       5.93023852E-09
   2.46900010       6.08951023E-09
   2.47000003       6.25218011E-09
   2.47099996       6.41830455E-09
   2.47199988       6.58794530E-09
   2.47300005       6.76116585E-09
   2.47399998       6.93803281E-09
   2.47499990       7.11861592E-09
   2.47600007       7.30298666E-09
   2.47700000       7.49121920E-09
   2.47799993       7.68338815E-09
   2.47900009       7.87956900E-09
   2.48000002       8.07983724E-09
   2.48099995       8.28426749E-09
   2.48200011       8.49293347E-09
   2.48300004       8.70590888E-09
   2.48399997       8.92326657E-09
   2.48499990       9.14507403E-09
   2.48600006       9.37140143E-09
   2.48699999       9.60231716E-09
   2.48799992       9.83788695E-09
   2.48900008       1.00781818E-08
   2.49000001       1.03232747E-08
   2.49099994       1.05732401E-08
   2.49200010       1.08281535E-08
   2.49300003       1.10880976E-08
   2.49399996       1.13531566E-08
   2.49499989       1.16234169E-08
   2.49600005       1.18989680E-08
   2.49699998       1.21799051E-08
   2.49799991       1.24663240E-08
   2.49900007       1.27583286E-08
   2.50000000       1.30560220E-08
   2.50099993       1.33595117E-08
   2.50200009       1.36689042E-08
   2.50300002       1.39843053E-08
   2.50399995       1.43058205E-08
   2.50500011       1.46335548E-08
   2.50600004       1.49676094E-08
   2.50699997       1.53080890E-08
   2.50799990       1.56550986E-08
   2.50900006       1.60087481E-08
   2.50999999       1.63691443E-08
   2.51099992       1.67363954E-08
   2.51200008       1.71106223E-08
   2.51300001       1.74919368E-08
   2.51399994       1.78804598E-08
   2.51500010       1.82763156E-08
   2.51600003       1.86796303E-08
   2.51699996       1.90905389E-08
   2.51799989       1.95091765E-08
   2.51900005       1.99356816E-08
   2.51999998       2.03701909E-08
   2.52099991       2.08128483E-08
   2.52200007       2.12637907E-08
   2.52300000       2.17231548E-08
   2.52399993       2.21910845E-08
   2.52500010       2.26677166E-08
   2.52600002       2.31531949E-08
   2.52699995       2.36476687E-08
   2.52800012       2.41512890E-08
   2.52900004       2.46642156E-08
   2.52999997       2.51866101E-08
   2.53099990       2.57186379E-08
   2.53200006       2.62604729E-08
   2.53299999       2.68122928E-08
   2.53399992       2.73742806E-08
   2.53500009       2.79466192E-08
   2.53600001       2.85294970E-08
   2.53699994       2.91230968E-08
   2.53800011       2.97276106E-08
   2.53900003       3.03432159E-08
   2.53999996       3.09700994E-08
   2.54099989       3.16084403E-08
   2.54200006       3.22584164E-08
   2.54299998       3.29202017E-08
   2.54399991       3.35939809E-08
   2.54500008       3.42799176E-08
   2.54600000       3.49782034E-08
   2.54699993       3.56890233E-08
   2.54800010       3.64125654E-08
   2.54900002       3.71490216E-08
   2.54999995       3.78985838E-08
   2.55100012       3.86614545E-08
   2.55200005       3.94378219E-08
   2.55299997       4.02278815E-08
   2.55399990       4.10318250E-08
   2.55500007       4.18498480E-08
   2.55599999       4.26821352E-08
   2.55699992       4.35288747E-08
   2.55800009       4.43902586E-08
   2.55900002       4.52664679E-08
   2.55999994       4.61576874E-08
   2.56100011       4.70641055E-08
   2.56200004       4.79859175E-08
   2.56299996       4.89233187E-08
   2.56399989       4.98765083E-08
   2.56500006       5.08456992E-08
   2.56599998       5.18311083E-08
   2.56699991       5.28329487E-08
   2.56800008       5.38514442E-08
   2.56900001       5.48868293E-08
   2.56999993       5.59393207E-08
   2.57100010       5.70091530E-08
   2.57200003       5.80965427E-08
   2.57299995       5.92017173E-08
   2.57399988       6.03249219E-08
   2.57500005       6.14663946E-08
   2.57599998       6.26263628E-08
   2.57699990       6.38050892E-08
   2.57800007       6.50028227E-08
   2.57900000       6.62198261E-08
   2.57999992       6.74563978E-08
   2.58100009       6.87128363E-08
   2.58200002       6.99894400E-08
   2.58299994       7.12865358E-08
   2.58400011       7.26044576E-08
   2.58500004       7.39435393E-08
   2.58599997       7.53041220E-08
   2.58699989       7.66865682E-08
   2.58800006       7.80912401E-08
   2.58899999       7.95185002E-08
   2.58999991       8.09687251E-08
   2.59100008       8.24423054E-08
   2.59200001       8.39396392E-08
   2.59299994       8.54611599E-08
   2.59400010       8.70072796E-08
   2.59500003       8.85784672E-08
   2.59599996       9.01751704E-08
   2.59699988       9.17978582E-08
   2.59800005       9.34470137E-08
   2.59899998       9.51231129E-08
   2.59999990       9.68266463E-08
   2.60100007       9.85581181E-08
   2.60200000       1.00317997E-07
   2.60299993       1.02106775E-07
   2.60400009       1.03924933E-07
   2.60500002       1.05772941E-07
   2.60599995       1.07651253E-07
   2.60700011       1.09560304E-07
   2.60800004       1.11500540E-07
   2.60899997       1.13472403E-07
   2.60999990       1.15476347E-07
   2.61100006       1.17512819E-07
   2.61199999       1.19582324E-07
   2.61299992       1.21685289E-07
   2.61400008       1.23822204E-07
   2.61500001       1.25993552E-07
   2.61599994       1.28199801E-07
   2.61700010       1.30441393E-07
   2.61800003       1.32718782E-07
   2.61899996       1.35032408E-07
   2.61999989       1.37382699E-07
   2.62100005       1.39770052E-07
   2.62199998       1.42194907E-07
   2.62299991       1.44657648E-07
   2.62400007       1.47158673E-07
   2.62500000       1.49698394E-07
   2.62599993       1.52277181E-07
   2.62700009       1.54895432E-07
   2.62800002       1.57553544E-07
   2.62899995       1.60251901E-07
   2.63000011       1.62990943E-07
   2.63100004       1.65771084E-07
   2.63199997       1.68592706E-07
   2.63299990       1.71456179E-07
   2.63400006       1.74361858E-07
   2.63499999       1.77310085E-07
   2.63599992       1.80301143E-07
   2.63700008       1.83335260E-07
   2.63800001       1.86412720E-07
   2.63899994       1.89533722E-07
   2.64000010       1.92698465E-07
   2.64100003       1.95907191E-07
   2.64199996       1.99160041E-07
   2.64299989       2.02457244E-07
   2.64400005       2.05798969E-07
   2.64499998       2.09185458E-07
   2.64599991       2.12616968E-07
   2.64700007       2.16093795E-07
   2.64800000       2.19616254E-07
   2.64899993       2.23184657E-07
   2.65000010       2.26799330E-07
   2.65100002       2.30460699E-07
   2.65199995       2.34169178E-07
   2.65300012       2.37925278E-07
   2.65400004       2.41729538E-07
   2.65499997       2.45582584E-07
   2.65599990       2.49485112E-07
   2.65700006       2.53437889E-07
   2.65799999       2.57441798E-07
   2.65899992       2.61497803E-07
   2.66000009       2.65607042E-07
   2.66100001       2.69770737E-07
   2.66199994       2.73990224E-07
   2.66300011       2.78267038E-07
   2.66400003       2.82602713E-07
   2.66499996       2.86998812E-07
   2.66599989       2.91457127E-07
   2.66700006       2.95979333E-07
   2.66799998       3.00567251E-07
   2.66899991       3.05222756E-07
   2.67000008       3.09947609E-07
   2.67100000       3.14743829E-07
   2.67199993       3.19613264E-07
   2.67300010       3.24557874E-07
   2.67400002       3.29579564E-07
   2.67499995       3.34680209E-07
   2.67600012       3.39861714E-07
   2.67700005       3.45125841E-07
   2.67799997       3.50474522E-07
   2.67899990       3.55909521E-07
   2.68000007       3.61432654E-07
   2.68099999       3.67045715E-07
   2.68199992       3.72750378E-07
   2.68300009       3.78548265E-07
   2.68400002       3.84441023E-07
   2.68499994       3.90430074E-07
   2.68600011       3.96516867E-07
   2.68700004       4.02702824E-07
   2.68799996       4.08989393E-07
   2.68899989       4.15377968E-07
   2.69000006       4.21869970E-07
   2.69099998       4.28467018E-07
   2.69199991       4.35170563E-07
   2.69300008       4.41982166E-07
   2.69400001       4.48903393E-07
   2.69499993       4.55935748E-07
   2.69600010       4.63080738E-07
   2.69700003       4.70340012E-07
   2.69799995       4.77715162E-07
   2.69899988       4.85207806E-07
   2.70000005       4.92819595E-07
   2.70099998       5.00552289E-07
   2.70199990       5.08407368E-07
   2.70300007       5.16386308E-07
   2.70400000       5.24490645E-07
   2.70499992       5.32721913E-07
   2.70600009       5.41081704E-07
   2.70700002       5.49571553E-07
   2.70799994       5.58193051E-07
   2.70900011       5.66947904E-07
   2.71000004       5.75837760E-07
   2.71099997       5.84864324E-07
   2.71199989       5.94029359E-07
   2.71300006       6.03334627E-07
   2.71399999       6.12781832E-07
   2.71499991       6.22372795E-07
   2.71600008       6.32109106E-07
   2.71700001       6.41992813E-07
   2.71799994       6.52025562E-07
   2.71900010       6.62209345E-07
   2.72000003       6.72546150E-07
   2.72099996       6.83038024E-07
   2.72199988       6.93686957E-07
   2.72300005       7.04495108E-07
   2.72399998       7.15464807E-07
   2.72499990       7.26598046E-07
   2.72600007       7.37897267E-07
   2.72700000       7.49364801E-07
   2.72799993       7.61002980E-07
   2.72900009       7.72814019E-07
   2.73000002       7.84800307E-07
   2.73099995       7.96963889E-07
   2.73200011       8.09306812E-07
   2.73300004       8.21830952E-07
   2.73399997       8.34538014E-07
   2.73499990       8.47429646E-07
   2.73600006       8.60507328E-07
   2.73699999       8.73772535E-07
   2.73799992       8.87226406E-07
   2.73900008       9.00870077E-07
   2.74000001       9.14704628E-07
   2.74099994       9.28730685E-07
   2.74200010       9.42948986E-07
   2.74300003       9.57360271E-07
   2.74399996       9.71964710E-07
   2.74499989       9.86762643E-07
   2.74600005       1.00175430E-06
   2.74699998       1.01694002E-06
   2.74799991       1.03231946E-06
   2.74900007       1.04789251E-06
   2.75000000       1.06365883E-06
   2.75099993       1.07961796E-06
   2.75200009       1.09576968E-06
   2.75300002       1.11211375E-06
   2.75399995       1.12864984E-06
   2.75500011       1.14537784E-06
   2.75600004       1.16229751E-06
   2.75699997       1.17940851E-06
   2.75799990       1.19671074E-06
   2.75900006       1.21420408E-06
   2.75999999       1.23188840E-06
   2.76099992       1.24976339E-06
   2.76200008       1.26782913E-06
   2.76300001       1.28608565E-06
   2.76399994       1.30453270E-06
   2.76500010       1.32316984E-06
   2.76600003       1.34199684E-06
   2.76699996       1.36101357E-06
   2.76799989       1.38021960E-06
   2.76900005       1.39961503E-06
   2.76999998       1.41919952E-06
   2.77099991       1.43897319E-06
   2.77200007       1.45893625E-06
   2.77300000       1.47908906E-06
   2.77399993       1.49943207E-06
   2.77500010       1.51996562E-06
   2.77600002       1.54069073E-06
   2.77699995       1.56160831E-06
   2.77800012       1.58271939E-06
   2.77900004       1.60402521E-06
   2.77999997       1.62552692E-06
   2.78099990       1.64722633E-06
   2.78200006       1.66912491E-06
   2.78299999       1.69122472E-06
   2.78399992       1.71352758E-06
   2.78500009       1.73603564E-06
   2.78600001       1.75875084E-06
   2.78699994       1.78167545E-06
   2.78800011       1.80481197E-06
   2.78900003       1.82816268E-06
   2.78999996       1.85173042E-06
   2.79099989       1.87551746E-06
   2.79200006       1.89952630E-06
   2.79299998       1.92375978E-06
   2.79399991       1.94822019E-06
   2.79500008       1.97290956E-06
   2.79600000       1.99783040E-06
   2.79699993       2.02298452E-06
   2.79800010       2.04837488E-06
   2.79900002       2.07400308E-06
   2.79999995       2.09987184E-06
   2.80100012       2.12598343E-06
   2.80200005       2.15234104E-06
   2.80299997       2.17894717E-06
   2.80399990       2.20580387E-06
   2.80500007       2.23291386E-06
   2.80599999       2.26028055E-06
   2.80699992       2.28790714E-06
   2.80800009       2.31579702E-06
   2.80900002       2.34395429E-06
   2.80999994       2.37238214E-06
   2.81100011       2.40108443E-06
   2.81200004       2.43006434E-06
   2.81299996       2.45932461E-06
   2.81399989       2.48886909E-06
   2.81500006       2.51870119E-06
   2.81599998       2.54882389E-06
   2.81699991       2.57924125E-06
   2.81800008       2.60995648E-06
   2.81900001       2.64097343E-06
   2.81999993       2.67229575E-06
   2.82100010       2.70392661E-06
   2.82200003       2.73586943E-06
   2.82299995       2.76812762E-06
   2.82399988       2.80070481E-06
   2.82500005       2.83360532E-06
   2.82599998       2.86683235E-06
   2.82699990       2.90039020E-06
   2.82800007       2.93428252E-06
   2.82900000       2.96851272E-06
   2.82999992       3.00308466E-06
   2.83100009       3.03800130E-06
   2.83200002       3.07326627E-06
   2.83299994       3.10888390E-06
   2.83400011       3.14485783E-06
   2.83500004       3.18119100E-06
   2.83599997       3.21788798E-06
   2.83699989       3.25495284E-06
   2.83800006       3.29238878E-06
   2.83899999       3.33019966E-06
   2.83999991       3.36838866E-06
   2.84100008       3.40695942E-06
   2.84200001       3.44591490E-06
   2.84299994       3.48525805E-06
   2.84400010       3.52499183E-06
   2.84500003       3.56511941E-06
   2.84599996       3.60564354E-06
   2.84699988       3.64656739E-06
   2.84800005       3.68789301E-06
   2.84899998       3.72962336E-06
   2.84999990       3.77176138E-06
   2.85100007       3.81430937E-06
   2.85200000       3.85727071E-06
   2.85299993       3.90064906E-06
   2.85400009       3.94444669E-06
   2.85500002       3.98866860E-06
   2.85599995       4.03331796E-06