   2.00000000       0.00000000    
   2.00099993       0.00000000    
   2.00200009       0.00000000    
   2.00300002       0.00000000    
   2.00399995       0.00000000    
   2.00500011      -2.20119649E-26
   2.00600004      -2.11958100E-25
   2.00699997      -1.11321724E-24
   2.00799990      -4.21718690E-24
   2.00900006      -1.28499856E-23
   2.00999999      -3.33262557E-23
   2.01099992      -7.61447989E-23
   2.01200008      -1.56888834E-22
   2.01300001      -2.96370246E-22
   2.01399994      -5.19199622E-22
   2.01500010      -8.49185313E-22
   2.01600003      -1.29901677E-21
   2.01699996      -1.85150345E-21
   2.01799989      -2.43147338E-21
   2.01900005      -2.87194867E-21
   2.01999998      -2.88470010E-21
   2.02099991      -2.05149294E-21
   2.02200007       1.44967669E-22
   2.02300000       4.23541798E-21
   2.02399993       1.06209627E-20
   2.02500010       1.93883769E-20
   2.02600002       3.01195557E-20
   2.02699995       4.17454403E-20
   2.02800012       5.24978448E-20
   2.02900004       6.00011484E-20
   2.02999997       6.15212866E-20
   2.03099990       5.43575277E-20
   2.03200006       3.63310327E-20
   2.03299999       6.29899006E-21
   2.03399992      -3.53929969E-20
   2.03500009      -8.66137717E-20
   2.03600001      -1.43393401E-19
   2.03699994      -2.00181650E-19
   2.03800011      -2.50443018E-19
   2.03900003      -2.87544964E-19
   2.03999996      -3.05809681E-19
   2.04099989      -3.01518733E-19
   2.04200006      -2.73614596E-19
   2.04299998      -2.23866817E-19
   2.04399991      -1.56378159E-19
   2.04500008      -7.64813844E-20
   2.04600000       1.07244847E-20
   2.04699993       1.01794669E-19
   2.04800010       1.95862061E-19
   2.04900002       2.94695837E-19
   2.04999995       4.01738721E-19
   2.05100012       5.20247802E-19
   2.05200005       6.50932981E-19
   2.05299997       7.89670660E-19
   2.05399990       9.25914855E-19
   2.05500007       1.04233432E-18
   2.05599999       1.11599744E-18
   2.05699992       1.12116825E-18
   2.05800009       1.03351006E-18
   2.05900002       8.35256842E-19
   2.05999994       5.20710041E-19
   2.06100011       1.01254869E-19
   2.06200004      -3.91048807E-19
   2.06299996      -9.02337209E-19
   2.06399989      -1.35931748E-18
   2.06500006      -1.67603015E-18
   2.06599998      -1.76547598E-18
   2.06699991      -1.55585704E-18
   2.06800008      -1.01014107E-18
   2.06900001      -1.46388130E-19
   2.06999993       9.44954588E-19
   2.07100010       2.09148130E-18
   2.07200003       3.04180905E-18
   2.07299995       3.48501904E-18
   2.07399988       3.08830818E-18
   2.07500005       1.55134208E-18
   2.07599998      -1.32811985E-18
   2.07699990      -5.58663889E-18
   2.07800007      -1.10377856E-17
   2.07900000      -1.72384771E-17
   2.07999992      -2.34910195E-17
   2.08100009      -2.88889256E-17
   2.08200002      -3.24081986E-17
   2.08299994      -3.30378153E-17
   2.08400011      -2.99349748E-17
   2.08500004      -2.25836255E-17
   2.08599997      -1.09306947E-17
   2.08699989       4.52583311E-18
   2.08800006       2.27183187E-17
   2.08899999       4.20729272E-17
   2.08999991       6.06555264E-17
   2.09100008       7.63868936E-17
   2.09200001       8.73014624E-17
   2.09299994       9.18145267E-17
   2.09400010       8.89586956E-17
   2.09500003       7.85525716E-17
   2.09599996       6.12728943E-17
   2.09699988       3.86144652E-17
   2.09800005       1.27383506E-17
   2.09899998      -1.37746922E-17
   2.09999990      -3.82346040E-17
   2.10100007      -5.81751757E-17
   2.10200000      -7.16651283E-17
   2.10299993      -7.75546874E-17
   2.10400009      -7.56238162E-17
   2.10500002      -6.66120342E-17
   2.10599995      -5.21259377E-17
   2.10700011      -3.44381064E-17
   2.10800004      -1.62054972E-17
   2.10899997      -1.46519794E-19
   2.10999990       1.12799444E-17
   2.11100006       1.61523823E-17
   2.11199999       1.32889121E-17
   2.11299992       2.35489676E-18
   2.11400008      -1.61277290E-17
   2.11500001      -4.08580173E-17
   2.11599994      -6.98980257E-17
   2.11700010      -1.00851124E-16
   2.11800003      -1.31049047E-16
   2.11899996      -1.57726958E-16
   2.11999989      -1.78175882E-16
   2.12100005      -1.89873499E-16
   2.12199998      -1.90602980E-16
   2.12299991      -1.78573749E-16
   2.12400007      -1.52555570E-16
   2.12500000      -1.12028300E-16
   2.12599993      -5.73373013E-17
   2.12700009       1.01696488E-17
   2.12800002       8.80574724E-17
   2.12899995       1.72807281E-16
   2.13000011       2.59937550E-16
   2.13100004       3.44255630E-16
   2.13199997       4.20229536E-16
   2.13299990       4.82444397E-16
   2.13400006       5.26087134E-16
   2.13499999       5.47390966E-16
   2.13599992       5.43972553E-16
   2.13700008       5.15009532E-16
   2.13800001       4.61230351E-16
   2.13899994       3.84723609E-16
   2.14000010       2.88602072E-16
   2.14100003       1.76583672E-16
   2.14199996       5.25632417E-17
   2.14299989      -7.97529893E-17
   2.14400005      -2.17093750E-16
   2.14499998      -3.56719297E-16
   2.14599991      -4.96367607E-16
   2.14700007      -6.34078700E-16
   2.14800000      -7.67945428E-16
   2.14899993      -8.95849574E-16
   2.15000010      -1.01523919E-15
   2.15100002      -1.12298823E-15
   2.15199995      -1.21536226E-15
   2.15300012      -1.28808883E-15
   2.15400004      -1.33651296E-15
   2.15499997      -1.35580805E-15
   2.15599990      -1.34120626E-15
   2.15700006      -1.28822096E-15
   2.15799999      -1.19284368E-15
   2.15899992      -1.05171412E-15
   2.16000009      -8.62274564E-16
   2.16100001      -6.22927617E-16
   2.16199994      -3.33219638E-16
   2.16300011       5.93734610E-18
   2.16400003       3.92005207E-16
   2.16499996       8.20537439E-16
   2.16599989       1.28491468E-15
   2.16700006       1.77614603E-15
   2.16799998       2.28279487E-15
   2.16899991       2.79107436E-15
   2.17000008       3.28514084E-15
   2.17100000       3.74757615E-15
   2.17199993       4.16001513E-15
   2.17300010       4.50382834E-15
   2.17400002       4.76076689E-15
   2.17499995       4.91345178E-15
   2.17600012       4.94563183E-15
   2.17700005       4.84218709E-15
   2.17799997       4.58889544E-15
   2.17899990       4.17207857E-15
   2.18000007       3.57825469E-15
   2.18099999       2.79396973E-15
   2.18199992       1.80591808E-15
   2.18300009       6.01430980E-16
   2.18400002      -8.30685476E-16
   2.18499994      -2.49908029E-15
   2.18600011      -4.40873026E-15
   2.18700004      -6.55994195E-15
   2.18799996      -8.94767235E-15
   2.18899989      -1.15612620E-14
   2.19000006      -1.43845964E-14
   2.19099998      -1.73965948E-14
   2.19199991      -2.05718604E-14
   2.19300008      -2.38812960E-14
   2.19400001      -2.72925078E-14
   2.19499993      -3.07699050E-14
   2.19600010      -3.42744936E-14
   2.19700003      -3.77635274E-14
   2.19799995      -4.11901755E-14
   2.19899988      -4.45035075E-14
   2.20000005      -4.76489440E-14
   2.20099998      -5.05693747E-14
   2.20199990      -5.32068692E-14
   2.20300007      -5.55048527E-14
   2.20400000      -5.74105311E-14
   2.20499992      -5.88771450E-14
   2.20600009      -5.98658222E-14
   2.20700002      -6.03467404E-14
   2.20799994      -6.02995369E-14
   2.20900011      -5.97129768E-14
   2.21000004      -5.85840512E-14
   2.21099997      -5.69168058E-14
   2.21199989      -5.47211236E-14
   2.21300006      -5.20117905E-14
   2.21399999      -4.88078578E-14
   2.21499991      -4.51324430E-14
   2.21600008      -4.10127797E-14
   2.21700001      -3.64804114E-14
   2.21799994      -3.15712998E-14
   2.21900010      -2.63257400E-14
   2.22000003      -2.07879097E-14
   2.22099996      -1.50051683E-14
   2.22199988      -9.02704950E-15
   2.22300005      -2.90414034E-15
   2.22399998       3.31306201E-15
   2.22499990       9.57524075E-15
   2.22600007       1.58351979E-14
   2.22700000       2.20486962E-14
   2.22799993       2.81752008E-14
   2.22900009       3.41785722E-14
   2.23000002       4.00277379E-14
   2.23099995       4.56973360E-14
   2.23200011       5.11682812E-14
   2.23300004       5.64281355E-14
   2.23399997       6.14712613E-14
   2.23499990       6.62986105E-14
   2.23600006       7.09171288E-14
   2.23699999       7.53388373E-14
   2.23799992       7.95795857E-14
   2.23900008       8.36576766E-14
   2.24000001       8.75924902E-14
   2.24099994       9.14032034E-14
   2.24200010       9.51077596E-14
   2.24300003       9.87221982E-14
   2.24399996       1.02260146E-13
   2.24499989       1.05732548E-13
   2.24600005       1.09147466E-13
   2.24699998       1.12509753E-13
   2.24799991       1.15820642E-13
   2.24900007       1.19077084E-13
   2.25000000       1.22271036E-13
   2.25099993       1.25388672E-13
   2.25200009       1.28409870E-13
   2.25300002       1.31308037E-13
   2.25399995       1.34050635E-13
   2.25500011       1.36600258E-13
   2.25600004       1.38916344E-13
   2.25699997       1.40957450E-13
   2.25799990       1.42683649E-13
   2.25900006       1.44058742E-13
   2.25999999       1.45052210E-13
   2.26099992       1.45640282E-13
   2.26200008       1.45806246E-13
   2.26300001       1.45539912E-13
   2.26399994       1.44836549E-13
   2.26500010       1.43695358E-13
   2.26600003       1.42118183E-13
   2.26699996       1.40108438E-13
   2.26799989       1.37670759E-13
   2.26900005       1.34811365E-13
   2.26999998       1.31538931E-13
   2.27099991       1.27865966E-13
   2.27200007       1.23809966E-13
   2.27300000       1.19394444E-13
   2.27399993       1.14649081E-13
   2.27500010       1.09609221E-13
   2.27600002       1.04314425E-13
   2.27699995       9.88064475E-14
   2.27800012       9.31268815E-14
   2.27900004       8.73148735E-14
   2.27999997       8.14052127E-14
   2.28099990       7.54270371E-14
   2.28200006       6.94033589E-14
   2.28299999       6.33512408E-14
   2.28399992       5.72825411E-14
   2.28500009       5.12050119E-14
   2.28600001       4.51232882E-14
   2.28699994       3.90397485E-14
   2.28800011       3.29549315E-14
   2.28900003       2.68675259E-14
   2.28999996       2.07739523E-14
   2.29099989       1.46676630E-14
   2.29200006       8.53839281E-15
   2.29299998       2.37148494E-15
   2.29399991      -3.85245704E-15
   2.29500008      -1.01574963E-14
   2.29600000      -1.65718168E-14
   2.29699993      -2.31266913E-14
   2.29800010      -2.98550823E-14
   2.29900002      -3.67899409E-14
   2.29999995      -4.39624669E-14
   2.30100012      -5.14004529E-14
   2.30200005      -5.91268638E-14
   2.30299997      -6.71588571E-14
   2.30399990      -7.55072410E-14
   2.30500007      -8.41763928E-14
   2.30599999      -9.31646389E-14
   2.30699992      -1.02464823E-13
   2.30800009      -1.12065068E-13
   2.30900002      -1.21949434E-13
   2.30999994      -1.32098352E-13
   2.31100011      -1.42488858E-13
   2.31200004      -1.53094388E-13
   2.31299996      -1.63884463E-13
   2.31399989      -1.74824199E-13
   2.31500006      -1.85874062E-13
   2.31599998      -1.96989750E-13
   2.31699991      -2.08122704E-13
   2.31800008      -2.19220922E-13
   2.31900001      -2.30230413E-13
   2.31999993      -2.41096856E-13
   2.32100010      -2.51767465E-13
   2.32200003      -2.62192747E-13
   2.32299995      -2.72327842E-13
   2.32399988      -2.82133502E-13
   2.32500005      -2.91576306E-13
   2.32599998      -3.00628690E-13
   2.32699990      -3.09268019E-13
   2.32800007      -3.17476053E-13
   2.32900000      -3.25237938E-13
   2.32999992      -3.32541693E-13
   2.33100009      -3.39377777E-13
   2.33200002      -3.45739333E-13
   2.33299994      -3.51622621E-13
   2.33400011      -3.57027748E-13
   2.33500004      -3.61959865E-13
   2.33599997      -3.66429868E-13
   2.33699989      -3.70455565E-13
   2.33800006      -3.74062191E-13
   2.33899999      -3.77282840E-13
   2.33999991      -3.80158849E-13
   2.34100008      -3.82739630E-13
   2.34200001      -3.85082103E-13
   2.34299994      -3.87250236E-13
   2.34400010      -3.89313527E-13
   2.34500003      -3.91345241E-13
   2.34599996      -3.93419645E-13
   2.34699988      -3.95608324E-13
   2.34800005      -3.97975760E-13
   2.34899998      -4.00573943E-13
   2.34999990      -4.03436507E-13
   2.35100007      -4.06573077E-13
   2.35200000      -4.09964001E-13
   2.35299993      -4.13557101E-13
   2.35400009      -4.17266726E-13
   2.35500002      -4.20975971E-13
   2.35599995      -4.24543647E-13
   2.35700011      -4.27814712E-13
   2.35800004      -4.30635860E-13
   2.35899997      -4.32873843E-13
   2.35999990      -4.34436287E-13
   2.36100006      -4.35292481E-13
   2.36199999      -4.35491893E-13
   2.36299992      -4.35178396E-13
   2.36400008      -4.34597399E-13
   2.36500001      -4.34094926E-13
   2.36599994      -4.34106933E-13
   2.36700010      -4.35140042E-13
   2.36800003      -4.37743862E-13
   2.36899996      -4.42478004E-13
   2.36999989      -4.49876437E-13
   2.37100005      -4.60412849E-13
   2.37199998      -4.74470235E-13
   2.37299991      -4.92318426E-13
   2.37400007      -5.14101403E-13
   2.37500000      -5.39836351E-13
   2.37599993      -5.69423577E-13
   2.37700009      -6.02667167E-13
   2.37800002      -6.39303443E-13
   2.37899995      -6.79033652E-13
   2.38000011      -7.21557959E-13
   2.38100004      -7.66605366E-13
   2.38199997      -8.13957951E-13
   2.38299990      -8.63464031E-13
   2.38400006      -9.15040504E-13
   2.38499999      -9.68663409E-13
   2.38599992      -1.02434662E-12
   2.38700008      -1.08211291E-12
   2.38800001      -1.14195816E-12
   2.38899994      -1.20381591E-12
   2.39000010      -1.26752395E-12
   2.39100003      -1.33279954E-12
   2.39199996      -1.39922438E-12
   2.39299989      -1.46624423E-12
   2.39400005      -1.53318146E-12
   2.39499998      -1.59926206E-12
   2.39599991      -1.66365272E-12
   2.39700007      -1.72550581E-12
   2.39800000      -1.78400686E-12
   2.39899993      -1.83841874E-12
   2.40000010      -1.88811835E-12
   2.40100002      -1.93262333E-12
   2.40199995      -1.97159953E-12
   2.40300012      -2.00485874E-12
   2.40400004      -2.03233437E-12
   2.40499997      -2.05404964E-12
   2.40599990      -2.07007415E-12
   2.40700006      -2.08047685E-12
   2.40799999      -2.08528290E-12
   2.40899992      -2.08443462E-12
   2.41000009      -2.07776786E-12
   2.41100001      -2.06500095E-12
   2.41199994      -2.04574118E-12
   2.41300011      -2.01950631E-12
   2.41400003      -1.98575813E-12
   2.41499996      -1.94394566E-12
   2.41599989      -1.89354869E-12
   2.41700006      -1.83411988E-12
   2.41799998      -1.76531608E-12
   2.41899991      -1.68691840E-12
   2.42000008      -1.59883337E-12
   2.42100000      -1.50108029E-12
   2.42199993      -1.39376108E-12
   2.42300010      -1.27702016E-12
   2.42400002      -1.15099868E-12
   2.42499995      -1.01578847E-12
   2.42600012      -8.71393127E-13
   2.42700005      -7.17702970E-13
   2.42799997      -5.54485765E-13
   2.42899990      -3.81397306E-13
   2.43000007      -1.98009943E-13
   2.43099999      -3.85625556E-15
   2.43199992       2.01517446E-13
   2.43300009       4.18495750E-13
   2.43400002       6.47343453E-13
   2.43499994       8.88167795E-13
   2.43600011       1.14089922E-12
   2.43700004       1.40529363E-12
   2.43799996       1.68095800E-12
   2.43899989       1.96739500E-12
   2.44000006       2.26406307E-12
   2.44099998       2.57044277E-12
   2.44199991       2.88610216E-12
   2.44300008       3.21074894E-12
   2.44400001       3.54426796E-12
   2.44499993       3.88672905E-12
   2.44600010       4.23837267E-12
   2.44700003       4.59956769E-12
   2.44799995       4.97074734E-12
   2.44899988       5.35233446E-12
   2.45000005       5.74466039E-12
   2.45099998       6.14789383E-12
   2.45199990       6.56198403E-12
   2.45300007       6.98663306E-12
   2.45400000       7.42129795E-12
   2.45499992       7.86521629E-12
   2.45600009       8.31747605E-12
   2.45700002       8.77708583E-12
   2.45799994       9.24307506E-12
   2.45900011       9.71457897E-12
   2.46000004       1.01909158E-11
   2.46099997       1.06716415E-11
   2.46199989       1.11565679E-11
   2.46300006       1.16457564E-11
   2.46399999       1.21394683E-11
   2.46499991       1.26380894E-11
   2.46600008       1.31420421E-11
   2.46700001       1.36516839E-11
   2.46799994       1.41672160E-11
   2.46900010       1.46886080E-11
   2.47000003       1.52155476E-11
   2.47099996       1.57474329E-11
   2.47199988       1.62833826E-11
   2.47300005       1.68223005E-11
   2.47399998       1.73629444E-11
   2.47499990       1.79040185E-11
   2.47600007       1.84442756E-11
   2.47700000       1.89825933E-11
   2.47799993       1.95180469E-11
   2.47900009       2.00499339E-11
   2.48000002       2.05777877E-11
   2.48099995       2.11013464E-11
   2.48200011       2.16204953E-11
   2.48300004       2.21351965E-11
   2.48399997       2.26453994E-11
   2.48499990       2.31509586E-11
   2.48600006       2.36515720E-11
   2.48699999       2.41467332E-11
   2.48799992       2.46357067E-11
   2.48900008       2.51175383E-11
   2.49000001       2.55911004E-11
   2.49099994       2.60551355E-11
   2.49200010       2.65083355E-11
   2.49300003       2.69494062E-11
   2.49399996       2.73771388E-11
   2.49499989       2.77904592E-11
   2.49600005       2.81884550E-11
   2.49699998       2.85703822E-11
   2.49799991       2.89356508E-11
   2.49900007       2.92837872E-11
   2.50000000       2.96143700E-11
   2.50099993       2.99269845E-11
   2.50200009       3.02211624E-11
   2.50300002       3.04963277E-11
   2.50399995       3.07517865E-11
   2.50500011       3.09866785E-11
   2.50600004       3.12000044E-11
   2.50699997       3.13906470E-11
   2.50799990       3.15574060E-11
   2.50900006       3.16990288E-11
   2.50999999       3.18142838E-11
   2.51099992       3.19019568E-11
   2.51200008       3.19609166E-11
   2.51300001       3.19901189E-11
   2.51399994       3.19885889E-11
   2.51500010       3.19554140E-11
   2.51600003       3.18897339E-11
   2.51699996       3.17906777E-11
   2.51799989       3.16573642E-11
   2.51900005       3.14888428E-11
   2.51999998       3.12840864E-11
   2.52099991       3.10419815E-11
   2.52200007       3.07613310E-11
   2.52300000       3.04408720E-11
   2.52399993       3.00792828E-11
   2.52500010       2.96752414E-11
   2.52600002       2.92274434E-11
   2.52699995       2.87346154E-11
   2.52800012       2.81955605E-11
   2.52900004       2.76091407E-11
   2.52999997       2.69742909E-11
   2.53099990       2.62899841E-11
   2.53200006       2.55552229E-11
   2.53299999       2.47690011E-11
   2.53399992       2.39302848E-11
   2.53500009       2.30379830E-11
   2.53600001       2.20909402E-11
   2.53699994       2.10879283E-11
   2.53800011       2.00276601E-11
   2.53900003       1.89088103E-11
   2.53999996       1.77300397E-11
   2.54099989       1.64900212E-11
   2.54200006       1.51874711E-11
   2.54299998       1.38211673E-11
   2.54399991       1.23899589E-11
   2.54500008       1.08927685E-11
   2.54600000       9.32857524E-12
   2.54699993       7.69639300E-12
   2.54800010       5.99523946E-12
   2.54900002       4.22410544E-12
   2.54999995       2.38191953E-12
   2.55100012       4.67526679E-13
   2.55200005      -1.52032835E-12
   2.55299997      -3.58300629E-12
   2.55399990      -5.72196804E-12
   2.55500007      -7.93875729E-12
   2.55599999      -1.02349813E-11
   2.55699992      -1.26122827E-11
   2.55800009      -1.50723167E-11
   2.55900002      -1.76167258E-11
   2.55999994      -2.02471304E-11
   2.56100011      -2.29651107E-11
   2.56200004      -2.57722142E-11
   2.56299996      -2.86699536E-11
   2.56399989      -3.16598102E-11
   2.56500006      -3.47432499E-11
   2.56599998      -3.79217283E-11
   2.56699991      -4.11966919E-11
   2.56800008      -4.45695945E-11
   2.56900001      -4.80418830E-11
   2.56999993      -5.16150178E-11
   2.57100010      -5.52904562E-11
   2.57200003      -5.90696658E-11
   2.57299995      -6.29541488E-11
   2.57399988      -6.69454145E-11
   2.57500005      -7.10450171E-11
   2.57599998      -7.52545803E-11
   2.57699990      -7.95757904E-11
   2.57800007      -8.40104167E-11
   2.57900000      -8.85603049E-11
   2.57999992      -9.32273980E-11
   2.58100009      -9.80136874E-11
   2.58200002      -1.02921220E-10
   2.58299994      -1.07952092E-10
   2.58400011      -1.13108335E-10
   2.58500004      -1.18391991E-10
   2.58599997      -1.23805022E-10
   2.58699989      -1.29349337E-10
   2.58800006      -1.35026768E-10
   2.58899999      -1.40839090E-10
   2.58999991      -1.46788054E-10
   2.59100008      -1.52875421E-10
   2.59200001      -1.59103009E-10
   2.59299994      -1.65472733E-10
   2.59400010      -1.71986647E-10
   2.59500003      -1.78646972E-10
   2.59599996      -1.85456053E-10
   2.59699988      -1.92416430E-10
   2.59800005      -1.99530725E-10
   2.59899998      -2.06801673E-10
   2.59999990      -2.14232007E-10
   2.60100007      -2.21824420E-10
   2.60200000      -2.29581493E-10
   2.60299993      -2.37505682E-10
   2.60400009      -2.45599319E-10
   2.60500002      -2.53864596E-10
   2.60599995      -2.62303512E-10
   2.60700011      -2.70918094E-10
   2.60800004      -2.79710338E-10
   2.60899997      -2.88682328E-10
   2.60999990      -2.97836283E-10
   2.61100006      -3.07174591E-10
   2.61199999      -3.16699833E-10
   2.61299992      -3.26414840E-10
   2.61400008      -3.36322609E-10
   2.61500001      -3.46426277E-10
   2.61599994      -3.56729091E-10
   2.61700010      -3.67234271E-10
   2.61800003      -3.77944981E-10
   2.61899996      -3.88864330E-10
   2.61999989      -3.99995315E-10
   2.62100005      -4.11340823E-10
   2.62199998      -4.22903657E-10
   2.62299991      -4.34686731E-10
   2.62400007      -4.46692988E-10
   2.62500000      -4.58925731E-10
   2.62599993      -4.71388484E-10
   2.62700009      -4.84085161E-10
   2.62800002      -4.97020258E-10
   2.62899995      -5.10198772E-10
   2.63000011      -5.23625976E-10
   2.63100004      -5.37307698E-10
   2.63199997      -5.51250157E-10
   2.63299990      -5.65459513E-10
   2.63400006      -5.79942094E-10
   2.63499999      -5.94704230E-10
   2.63599992      -6.09751916E-10
   2.63700008      -6.25091146E-10
   2.63800001      -6.40727582E-10
   2.63899994      -6.56666665E-10
   2.64000010      -6.72913780E-10
   2.64100003      -6.89474089E-10
   2.64199996      -7.06353143E-10
   2.64299989      -7.23556326E-10
   2.64400005      -7.41089634E-10
   2.64499998      -7.58959062E-10
   2.64599991      -7.77171161E-10
   2.64700007      -7.95732702E-10
   2.64800000      -8.14650680E-10
   2.64899993      -8.33932257E-10
   2.65000010      -8.53584536E-10
   2.65100002      -8.73614570E-10
   2.65199995      -8.94028962E-10
   2.65300012      -9.14834097E-10
   2.65400004      -9.36036026E-10
   2.65499997      -9.57640522E-10
   2.65599990      -9.79652914E-10
   2.65700006      -1.00207831E-09
   2.65799999      -1.02492215E-09
   2.65899992      -1.04818954E-09
   2.66000009      -1.07188647E-09
   2.66100001      -1.09601883E-09
   2.66199994      -1.12059351E-09
   2.66300011      -1.14561760E-09
   2.66400003      -1.17109944E-09
   2.66499996      -1.19704724E-09
   2.66599989      -1.22346988E-09
   2.66700006      -1.25037658E-09
   2.66799998      -1.27777666E-09
   2.66899991      -1.30567945E-09
   2.67000008      -1.33409372E-09
   2.67100000      -1.36302836E-09
   2.67199993      -1.39249168E-09
   2.67300010      -1.42249190E-09
   2.67400002      -1.45303680E-09
   2.67499995      -1.48413470E-09
   2.67600012      -1.51579360E-09
   2.67700005      -1.54802193E-09
   2.67799997      -1.58082858E-09
   2.67899990      -1.61422309E-09
   2.68000007      -1.64821568E-09
   2.68099999      -1.68281711E-09
   2.68199992      -1.71803882E-09
   2.68300009      -1.75389270E-09
   2.68400002      -1.79039084E-09
   2.68499994      -1.82754578E-09
   2.68600011      -1.86536964E-09
   2.68700004      -1.90387484E-09
   2.68799996      -1.94307304E-09
   2.68899989      -1.98297645E-09
   2.69000006      -2.02359662E-09
   2.69099998      -2.06494510E-09
   2.69199991      -2.10703366E-09
   2.69300008      -2.14987450E-09
   2.69400001      -2.19347984E-09
   2.69499993      -2.23786301E-09
   2.69600010      -2.28303754E-09
   2.69700003      -2.32901831E-09
   2.69799995      -2.37582065E-09
   2.69899988      -2.42346099E-09
   2.70000005      -2.47195531E-09
   2.70099998      -2.52132137E-09
   2.70199990      -2.57157673E-09
   2.70300007      -2.62273847E-09
   2.70400000      -2.67482481E-09
   2.70499992      -2.72785328E-09
   2.70600009      -2.78184120E-09
   2.70700002      -2.83680590E-09
   2.70799994      -2.89276492E-09
   2.70900011      -2.94973512E-09
   2.71000004      -3.00773473E-09
   2.71099997      -3.06678127E-09
   2.71199989      -3.12689363E-09
   2.71300006      -3.18809090E-09
   2.71399999      -3.25039329E-09
   2.71499991      -3.31382144E-09
   2.71600008      -3.37839690E-09
   2.71700001      -3.44414186E-09
   2.71799994      -3.51107876E-09
   2.71900010      -3.57923047E-09
   2.72000003      -3.64862074E-09
   2.72099996      -3.71927245E-09
   2.72199988      -3.79120957E-09
   2.72300005      -3.86445542E-09
   2.72399998      -3.93903399E-09
   2.72499990      -4.01496969E-09
   2.72600007      -4.09228607E-09
   2.72700000      -4.17100843E-09
   2.72799993      -4.25116209E-09
   2.72900009      -4.33277281E-09
   2.73000002      -4.41586812E-09
   2.73099995      -4.50047599E-09
   2.73200011      -4.58662619E-09
   2.73300004      -4.67434802E-09
   2.73399997      -4.76367257E-09
   2.73499990      -4.85463181E-09
   2.73600006      -4.94725771E-09
   2.73699999      -5.04158271E-09
   2.73799992      -5.13763965E-09
   2.73900008      -5.23546229E-09
   2.74000001      -5.33508349E-09
   2.74099994      -5.43653655E-09
   2.74200010      -5.53985480E-09
   2.74300003      -5.64507374E-09
   2.74399996      -5.75222714E-09
   2.74499989      -5.86135185E-09
   2.74600005      -5.97248428E-09
   2.74699998      -6.08566220E-09
   2.74799991      -6.20092466E-09
   2.74900007      -6.31831298E-09
   2.75000000      -6.43786802E-09
   2.75099993      -6.55963284E-09
   2.75200009      -6.68365230E-09
   2.75300002      -6.80996948E-09
   2.75399995      -6.93862967E-09
   2.75500011      -7.06967906E-09
   2.75600004      -7.20316340E-09
   2.75699997      -7.33912886E-09
   2.75799990      -7.47762385E-09
   2.75900006      -7.61869412E-09
   2.75999999      -7.76239073E-09
   2.76099992      -7.90876076E-09
   2.76200008      -8.05785572E-09
   2.76300001      -8.20972712E-09
   2.76399994      -8.36442737E-09
   2.76500010      -8.52200888E-09
   2.76600003      -8.68252670E-09
   2.76699996      -8.84603679E-09
   2.76799989      -9.01259423E-09
   2.76900005      -9.18225762E-09
   2.76999998      -9.35508293E-09
   2.77099991      -9.53112611E-09
   2.77200007      -9.71044578E-09
   2.77300000      -9.89309967E-09
   2.77399993      -1.00791446E-08
   2.77500010      -1.02686393E-08
   2.77600002      -1.04616422E-08
   2.77699995      -1.06582130E-08
   2.77800012      -1.08584128E-08
   2.77900004      -1.10623031E-08
   2.77999997      -1.12699476E-08
   2.78099990      -1.14814105E-08
   2.78200006      -1.16967556E-08
   2.78299999      -1.19160504E-08
   2.78399992      -1.21393624E-08
   2.78500009      -1.23667592E-08
   2.78600001      -1.25983100E-08
   2.78699994      -1.28340831E-08
   2.78800011      -1.30741489E-08
   2.78900003      -1.33185782E-08
   2.78999996      -1.35674396E-08
   2.79099989      -1.38208058E-08
   2.79200006      -1.40787453E-08
   2.79299998      -1.43413343E-08
   2.79399991      -1.46086441E-08
   2.79500008      -1.48807500E-08
   2.79600000      -1.51577275E-08
   2.79699993      -1.54396549E-08
   2.79800010      -1.57266093E-08
   2.79900002      -1.60186708E-08
   2.79999995      -1.63159175E-08
   2.80100012      -1.66184311E-08
   2.80200005      -1.69262897E-08
   2.80299997      -1.72395751E-08
   2.80399990      -1.75583708E-08
   2.80500007      -1.78827584E-08
   2.80599999      -1.82128179E-08
   2.80699992      -1.85486346E-08
   2.80800009      -1.88902920E-08
   2.80900002      -1.92378771E-08
   2.80999994      -1.95914751E-08
   2.81100011      -1.99511714E-08
   2.81200004      -2.03170583E-08
   2.81299996      -2.06892246E-08
   2.81399989      -2.10677591E-08
   2.81500006      -2.14527596E-08
   2.81599998      -2.18443166E-08
   2.81699991      -2.22425243E-08
   2.81800008      -2.26474839E-08
   2.81900001      -2.30592896E-08
   2.81999993      -2.34780408E-08
   2.82100010      -2.39038354E-08
   2.82200003      -2.43367761E-08
   2.82299995      -2.47769645E-08
   2.82399988      -2.52245016E-08
   2.82500005      -2.56794923E-08
   2.82599998      -2.61420414E-08
   2.82699990      -2.66122555E-08
   2.82800007      -2.70902412E-08
   2.82900000      -2.75761067E-08
   2.82999992      -2.80699641E-08
   2.83100009      -2.85719235E-08
   2.83200002      -2.90820985E-08
   2.83299994      -2.96006064E-08
   2.83400011      -3.01275627E-08
   2.83500004      -3.06630810E-08
   2.83599997      -3.12072856E-08
   2.83699989      -3.17602904E-08
   2.83800006      -3.23222196E-08
   2.83899999      -3.28931904E-08
   2.83999991      -3.34733272E-08
   2.84100008      -3.40627579E-08
   2.84200001      -3.46616069E-08
   2.84299994      -3.52700020E-08
   2.84400010      -3.58880712E-08
   2.84500003      -3.65159423E-08
   2.84599996      -3.71537539E-08
   2.84699988      -3.78016338E-08
   2.84800005      -3.84597278E-08
   2.84899998      -3.91281603E-08
   2.84999990      -3.98070803E-08
   2.85100007      -4.04966265E-08
   2.85200000      -4.11969339E-08
   2.85299993      -4.19081516E-08
   2.85400009      -4.26304219E-08
   2.85500002      -4.33638903E-08
   2.85599995      -4.41087167E-08