   2.00000000       0.00000000    
   2.00099993       0.00000000    
   2.00200009       0.00000000    
   2.00300002       0.00000000    
   2.00399995       0.00000000    
   2.00500011       0.00000000    
   2.00600004       0.00000000    
   2.00699997       0.00000000    
   2.00799990       0.00000000    
   2.00900006      -4.90454463E-44
   2.00999999       3.44471000E-36
   2.01099992       1.55430401E-35
   2.01200008      -1.06677295E-34
   2.01300001      -1.27218234E-33
   2.01399994      -6.31065097E-33
   2.01500010      -2.08653979E-32
   2.01600003      -5.20058978E-32
   2.01699996      -1.01645126E-31
   2.01799989      -1.53578031E-31
   2.01900005      -1.60059719E-31
   2.01999998      -4.47124667E-32
   2.02099991       2.57575404E-31
   2.02200007       7.25038944E-31
   2.02300000       1.18925563E-30
   2.02399993       1.37338864E-30
   2.02500010       1.05248225E-30
   2.02600002       2.24926518E-31
   2.02699995      -8.87901006E-31
   2.02800012      -2.06161773E-30
   2.02900004      -3.27588195E-30
   2.02999997      -4.56035610E-30
   2.03099990      -5.43256840E-30
   2.03200006      -4.41087648E-30
   2.03299999       6.88674932E-31
   2.03399992       1.13386507E-29
   2.03500009       2.61562682E-29
   2.03600001       3.90731885E-29
   2.03699994       3.93147783E-29
   2.03800011       1.46713431E-29
   2.03900003      -4.17027750E-29
   2.03999996      -1.23518289E-28
   2.04099989      -2.07724785E-28
   2.04200006      -2.59030211E-28
   2.04299998      -2.40536589E-28
   2.04399991      -1.22493057E-28
   2.04500008       1.16015829E-28
   2.04600000       4.84330359E-28
   2.04699993       9.58119814E-28
   2.04800010       1.43234713E-27
   2.04900002       1.68105797E-27
   2.04999995       1.38669980E-27
   2.05100012       2.81479019E-28
   2.05200005      -1.63983209E-27
   2.05299997      -3.96812443E-27
   2.05399990      -5.93023451E-27
   2.05500007      -6.66409586E-27
   2.05599999      -5.57074774E-27
   2.05699992      -2.52306741E-27
   2.05800009       2.17272727E-27
   2.05900002       7.94399880E-27
   2.05999994       1.40079587E-26
   2.06100011       1.92122420E-26
   2.06200004       2.18601970E-26
   2.06299996       1.98965404E-26
   2.06399989       1.16194882E-26
   2.06500006      -3.40954080E-27
   2.06599998      -2.39097192E-26
   2.06699991      -4.72584813E-26
   2.06800008      -7.03037523E-26
   2.06900001      -8.95748476E-26
   2.06999993      -1.00113487E-25
   2.07100010      -9.34414617E-26
   2.07200003      -5.66980525E-26
   2.07299995       2.46210499E-26
   2.07399988       1.59401721E-25
   2.07500005       3.41043453E-25
   2.07599998       5.39345433E-25
   2.07699990       6.98861194E-25
   2.07800007       7.46264093E-25
   2.07900000       6.05747751E-25
   2.07999992       2.18673130E-25
   2.08100009      -4.37069272E-25
   2.08200002      -1.33159257E-24
   2.08299994      -2.37427667E-24
   2.08400011      -3.41533661E-24
   2.08500004      -4.26272705E-24
   2.08599997      -4.71852260E-24
   2.08699989      -4.63245077E-24
   2.08800006      -3.95808987E-24
   2.08899999      -2.78441512E-24
   2.08999991      -1.31107055E-24
   2.09100008       2.51600801E-25
   2.09200001       1.84515788E-24
   2.09299994       3.73355047E-24
   2.09400010       6.59177813E-24
   2.09500003       1.14161576E-23
   2.09599996       1.91960939E-23
   2.09699988       3.03678032E-23
   2.09800005       4.41772804E-23
   2.09899998       5.81782267E-23
   2.09999990       6.81371665E-23
   2.10100007       6.85752557E-23
   2.10200000       5.40276571E-23
   2.10299993       2.08673084E-23
   2.10400009      -3.07235763E-23
   2.10500002      -9.52559704E-23
   2.10599995      -1.61586671E-22
   2.10700011      -2.14233771E-22
   2.10800004      -2.36478007E-22
   2.10899997      -2.14827575E-22
   2.10999990      -1.43869132E-22
   2.11100006      -3.01524568E-23
   2.11199999       1.06267023E-22
   2.11299992       2.33600722E-22
   2.11400008       3.13616992E-22
   2.11500001       3.09725850E-22
   2.11599994       1.96333583E-22
   2.11700010      -3.24734371E-23
   2.11800003      -3.56773363E-22
   2.11899996      -7.28522563E-22
   2.11999989      -1.07376909E-21
   2.12100005      -1.29938392E-21
   2.12199998      -1.30401611E-21
   2.12299991      -9.92966510E-22
   2.12400007      -2.96710504E-22
   2.12500000       8.07521542E-22
   2.12599993       2.27274416E-21
   2.12700009       3.96131262E-21
   2.12800002       5.63192907E-21
   2.12899995       6.94227000E-21
   2.13000011       7.47523927E-21
   2.13100004       6.79448821E-21
   2.13199997       4.52946736E-21
   2.13299990       4.82226607E-22
   2.13400006      -5.26076570E-21
   2.13499999      -1.22362017E-20
   2.13599992      -1.95590604E-20
   2.13700008      -2.59513538E-20
   2.13800001      -2.98616240E-20
   2.13899994      -2.96774342E-20
   2.14000010      -2.40143166E-20
   2.14100003      -1.20454590E-20
   2.14199996       6.17871404E-21
   2.14299989       2.94790401E-20
   2.14400005       5.54179345E-20
   2.14499998       8.03288211E-20
   2.14599991       9.95147455E-20
   2.14700007       1.07593599E-19
   2.14800000       9.89372571E-20
   2.14899993       6.81326505E-20
   2.15000010       1.03927643E-20
   2.15100002      -7.81326566E-20
   2.15199995      -2.00154121E-19
   2.15300012      -3.57101651E-19
   2.15400004      -5.48950349E-19
   2.15499997      -7.73886968E-19
   2.15599990      -1.02769736E-18
   2.15700006      -1.30280719E-18
   2.15799999      -1.58700122E-18
   2.15899992      -1.86197736E-18
   2.16000009      -2.10202455E-18
   2.16100001      -2.27323150E-18
   2.16199994      -2.33368661E-18
   2.16300011      -2.23511460E-18
   2.16400003      -1.92626108E-18
   2.16499996      -1.35813286E-18
   2.16599989      -4.90903776E-19
   2.16700006       6.98027889E-19
   2.16799998       2.20564919E-18
   2.16899991       3.99567734E-18
   2.17000008       5.99283627E-18
   2.17100000       8.08024598E-18
   2.17199993       1.01009283E-17
   2.17300010       1.18640877E-17
   2.17400002       1.31563482E-17
   2.17499995       1.37575439E-17
   2.17600012       1.34600500E-17
   2.17700005       1.20900793E-17
   2.17799997       9.52893454E-18
   2.17899990       5.73197080E-18
   2.18000007       7.43156537E-19
   2.18099999      -5.29657519E-18
   2.18199992      -1.21483302E-17
   2.18300009      -1.94819365E-17
   2.18400002      -2.68898153E-17
   2.18499994      -3.39068314E-17
   2.18600011      -4.00344762E-17
   2.18700004      -4.47676600E-17
   2.18799996      -4.76225580E-17
   2.18899989      -4.81645929E-17
   2.19000006      -4.60359230E-17
   2.19099998      -4.09823425E-17
   2.19199991      -3.28793639E-17
   2.19300008      -2.17569545E-17
   2.19400001      -7.82142117E-18
   2.19499993       8.52787891E-18
   2.19600010       2.66903175E-17
   2.19700003       4.58679425E-17
   2.19799995       6.50850323E-17
   2.19899988       8.32255002E-17
   2.20000005       9.90886207E-17
   2.20099998       1.11461013E-16
   2.20199990       1.19200432E-16
   2.20300007       1.21324870E-16
   2.20400000       1.17099023E-16
   2.20499992       1.06109908E-16
   2.20600009       8.83244598E-17
   2.20700002       6.41234315E-17
   2.20799994       3.43083945E-17
   2.20900011       8.12422935E-20
   2.21000004      -3.70018799E-17
   2.21099997      -7.50986426E-17
   2.21199989      -1.12165466E-16
   2.21300006      -1.46053944E-16
   2.21399999      -1.74613500E-16
   2.21499991      -1.95795239E-16
   2.21600008      -2.07753769E-16
   2.21700001      -2.08943043E-16
   2.21799994      -1.98204121E-16
   2.21900010      -1.74841801E-16
   2.22000003      -1.38687457E-16
   2.22099996      -9.01444623E-17
   2.22199988      -3.02132947E-17
   2.22300005       3.95075291E-17
   2.22399998       1.16846594E-16
   2.22499990       1.99111691E-16
   2.22600007       2.83168038E-16
   2.22700000       3.65539133E-16
   2.22799993       4.42525984E-16
   2.22900009       5.10338039E-16
   2.23000002       5.65230909E-16
   2.23099995       6.03643377E-16
   2.23200011       6.22329506E-16
   2.23300004       6.18480059E-16
   2.23399997       5.89828111E-16
   2.23499990       5.34735923E-16
   2.23600006       4.52257360E-16
   2.23699999       3.42176482E-16
   2.23799992       2.05022154E-16
   2.23900008       4.20653204E-17
   2.24000001      -1.44690764E-16
   2.24099994      -3.52514440E-16
   2.24200010      -5.77928780E-16
   2.24300003      -8.16664169E-16
   2.24399996      -1.06357692E-15
   2.24499989      -1.31254341E-15
   2.24600005      -1.55635104E-15
   2.24699998      -1.78661970E-15
   2.24799991      -1.99379464E-15
   2.24900007      -2.16725153E-15
   2.25000000      -2.29554632E-15
   2.25099993      -2.36682838E-15
   2.25200009      -2.36941564E-15
   2.25300002      -2.29250102E-15
   2.25399995      -2.12695034E-15
   2.25500011      -1.86612476E-15
   2.25600004      -1.50665689E-15
   2.25699997      -1.04911320E-15
   2.25799990      -4.98477884E-16
   2.25900006       1.35586059E-16
   2.25999999       8.38723554E-16
   2.26099992       1.59212834E-15
   2.26200008       2.37301913E-15
   2.26300001       3.15532055E-15
   2.26399994       3.91050802E-15
   2.26500010       4.60856820E-15
   2.26600003       5.21903755E-15
   2.26699996       5.71208357E-15
   2.26799989       6.05960637E-15
   2.26900005       6.23633937E-15
   2.26999998       6.22094793E-15
   2.27099991       5.99710550E-15
   2.27200007       5.55452697E-15
   2.27300000       4.88992417E-15
   2.27399993       4.00783846E-15
   2.27500010       2.92127200E-15
   2.27600002       1.65205698E-15
   2.27699995       2.30871826E-16
   2.27800012      -1.30316030E-15
   2.27900004      -2.90334074E-15
   2.27999997      -4.51676042E-15
   2.28099990      -6.08613840E-15
   2.28200006      -7.55207461E-15
   2.28299999      -8.85560326E-15
   2.28399992      -9.94090149E-15
   2.28500009      -1.07579376E-14
   2.28600001      -1.12648987E-14
   2.28699994      -1.14301531E-14
   2.28800011      -1.12336262E-14
   2.28900003      -1.06674897E-14
   2.28999996      -9.73612789E-15
   2.29099989      -8.45548437E-15
   2.29200006      -6.85190447E-15
   2.29299998      -4.96067853E-15
   2.29399991      -2.82446419E-15
   2.29500008      -4.91770547E-16
   2.29600000       1.98440571E-15
   2.29699993       4.54774785E-15
   2.29800010       7.13963563E-15
   2.29900002       9.70008155E-15
   2.29999995       1.21686718E-14
   2.30100012       1.44855627E-14
   2.30200005       1.65925165E-14
   2.30299997       1.84338594E-14
   2.30399990       1.99572346E-14
   2.30500007       2.11139378E-14
   2.30599999       2.18586762E-14
   2.30699992       2.21487139E-14
   2.30800009       2.19424817E-14
   2.30900002       2.11979871E-14
   2.30999994       1.98715115E-14
   2.31100011       1.79173032E-14
   2.31200004       1.52890396E-14
   2.31299996       1.19437304E-14
   2.31399989       7.84856663E-15
   2.31500006       2.99077318E-15
   2.31599998      -2.61004923E-15
   2.31699991      -8.88825214E-15
   2.31800008      -1.57189647E-14
   2.31900001      -2.29078146E-14
   2.31999993      -3.01862383E-14
   2.32100010      -3.72150431E-14
   2.32200003      -4.35983782E-14
   2.32299995      -4.89093697E-14
   2.32399988      -5.27271538E-14
   2.32500005      -5.46834611E-14
   2.32599998      -5.45148541E-14
   2.32699990      -5.21150065E-14
   2.32800007      -4.75799345E-14
   2.32900000      -4.12382463E-14
   2.32999992      -3.36585584E-14
   2.33100009      -2.56274731E-14
   2.33200002      -1.80937317E-14
   2.33299994      -1.20775548E-14
   2.33400011      -8.54858346E-15
   2.33500004      -8.28047381E-15
   2.33599997      -1.16951245E-14
   2.33699989      -1.87136090E-14
   2.33800006      -2.86340335E-14
   2.33899999      -4.00576585E-14
   2.33999991      -5.08836950E-14
   2.34100008      -5.83895521E-14
   2.34200001      -5.94073063E-14
   2.34299994      -5.05984550E-14
   2.34400010      -2.88189747E-14
   2.34500003       8.44495829E-15
   2.34599996       6.26014607E-14
   2.34699988       1.33479057E-13
   2.34800005       2.18903509E-13
   2.34899998       3.14379436E-13
   2.34999990       4.12930297E-13
   2.35100007       5.05145784E-13
   2.35200000       5.79474402E-13
   2.35299993       6.22784268E-13
   2.35400009       6.21194231E-13
   2.35500002       5.61153663E-13
   2.35599995       4.30727340E-13
   2.35700011       2.21015087E-13
   2.35800004      -7.23815471E-14
   2.35899997      -4.47949756E-13
   2.35999990      -8.97023124E-13
   2.36100006      -1.40281417E-12
   2.36199999      -1.93981897E-12
   2.36299992      -2.47366927E-12
   2.36400008      -2.96147612E-12
   2.36500001      -3.35267925E-12
   2.36599994      -3.59036845E-12
   2.36700010      -3.61301462E-12
   2.36800003      -3.35650583E-12
   2.36899996      -2.75636155E-12
   2.36999989      -1.74997484E-12
   2.37100005      -2.78732603E-13
   2.37199998       1.71013214E-12
   2.37299991       4.26208244E-12
   2.37400007       7.41430702E-12
   2.37500000       1.11952930E-11
   2.37599993       1.56249614E-11
   2.37700009       2.07153166E-11
   2.37800002       2.64715645E-11
   2.37899995       3.28935663E-11
   2.38000011       3.99775248E-11
   2.38100004       4.77177221E-11
   2.38199997       5.61082535E-11
   2.38299990       6.51445495E-11
   2.38400006       7.48245910E-11
   2.38499999       8.51498733E-11
   2.38599992       9.61258989E-11
   2.38700008       1.07762292E-10
   2.38800001       1.20072660E-10
   2.38899994       1.33074080E-10
   2.39000010       1.46786472E-10
   2.39100003       1.61231722E-10
   2.39199996       1.76432965E-10
   2.39299989       1.92413696E-10
   2.39400005       2.09197118E-10
   2.39499998       2.26805630E-10
   2.39599991       2.45260368E-10
   2.39700007       2.64581024E-10
   2.39800000       2.84785667E-10
   2.39899993       3.05890896E-10
   2.40000010       3.27911920E-10
   2.40100002       3.50862672E-10
   2.40199995       3.74756198E-10
   2.40300012       3.99604766E-10
   2.40400004       4.25420199E-10
   2.40499997       4.52214155E-10
   2.40599990       4.79998374E-10
   2.40700006       5.08785125E-10
   2.40799999       5.38587397E-10
   2.40899992       5.69419345E-10
   2.41000009       6.01296457E-10
   2.41100001       6.34236053E-10
   2.41199994       6.68257005E-10
   2.41300011       7.03380465E-10
   2.41400003       7.39629358E-10
   2.41499996       7.77028331E-10
   2.41599989       8.15603474E-10
   2.41700006       8.55381932E-10
   2.41799998       8.96391184E-10
   2.41899991       9.38658595E-10
   2.42000008       9.82210535E-10
   2.42100000       1.02707221E-09
   2.42199993       1.07326614E-09
   2.42300010       1.12081389E-09
   2.42400002       1.16973420E-09
   2.42499995       1.22004451E-09
   2.42600012       1.27176103E-09
   2.42700005       1.32490019E-09
   2.42799997       1.37947853E-09
   2.42899990       1.43551482E-09
   2.43000007       1.49303048E-09
   2.43099999       1.55205016E-09
   2.43199992       1.61260250E-09
   2.43300009       1.67472070E-09
   2.43400002       1.73844206E-09
   2.43499994       1.80380755E-09
   2.43600011       1.87086102E-09
   2.43700004       1.93964822E-09
   2.43799996       2.01021511E-09
   2.43899989       2.08260720E-09
   2.44000006       2.15686780E-09
   2.44099998       2.23303753E-09
   2.44199991       2.31115305E-09
   2.44300008       2.39124720E-09
   2.44400001       2.47334953E-09
   2.44499993       2.55748556E-09
   2.44600010       2.64368039E-09
   2.44700003       2.73195688E-09
   2.44799995       2.82233903E-09
   2.44899988       2.91485236E-09
   2.45000005       3.00952485E-09
   2.45099998       3.10638826E-09
   2.45199990       3.20547833E-09
   2.45300007       3.30683614E-09
   2.45400000       3.41050610E-09
   2.45499992       3.51653817E-09
   2.45600009       3.62498587E-09
   2.45700002       3.73590536E-09
   2.45799994       3.84935461E-09
   2.45900011       3.96539290E-09
   2.46000004       4.08408063E-09
   2.46099997       4.20547686E-09
   2.46199989       4.32964065E-09
   2.46300006       4.45662929E-09
   2.46399999       4.58650007E-09
   2.46499991       4.71931028E-09
   2.46600008       4.85511631E-09
   2.46700001       4.99397368E-09
   2.46799994       5.13593923E-09
   2.46900010       5.28106758E-09
   2.47000003       5.42941470E-09
   2.47099996       5.58103697E-09
   2.47199988       5.73599168E-09
   2.47300005       5.89433702E-09
   2.47399998       6.05613293E-09
   2.47499990       6.22144203E-09
   2.47600007       6.39032871E-09
   2.47700000       6.56285915E-09
   2.47799993       6.73910172E-09
   2.47900009       6.91912838E-09
   2.48000002       7.10301240E-09
   2.48099995       7.29083194E-09
   2.48200011       7.48266515E-09
   2.48300004       7.67859376E-09
   2.48399997       7.87869947E-09
   2.48499990       8.08306488E-09
   2.48600006       8.29177171E-09
   2.48699999       8.50490078E-09
   2.48799992       8.72253025E-09
   2.48900008       8.94473384E-09
   2.49000001       9.17158527E-09
   2.49099994       9.40315292E-09
   2.49200010       9.63950786E-09
   2.49300003       9.88071847E-09
   2.49399996       1.01268558E-08
   2.49499989       1.03779927E-08
   2.49600005       1.06342029E-08
   2.49699998       1.08955698E-08
   2.49799991       1.11621761E-08
   2.49900007       1.14341123E-08
   2.50000000       1.17114753E-08
   2.50099993       1.19943646E-08
   2.50200009       1.22828849E-08
   2.50300002       1.25771447E-08
   2.50399995       1.28772504E-08
   2.50500011       1.31833078E-08
   2.50600004       1.34954208E-08
   2.50699997       1.38136889E-08
   2.50799990       1.41382115E-08
   2.50900006       1.44690819E-08
   2.50999999       1.48063943E-08
   2.51099992       1.51502419E-08
   2.51200008       1.55007172E-08
   2.51300001       1.58579141E-08
   2.51399994       1.62219358E-08
   2.51500010       1.65928800E-08
   2.51600003       1.69708638E-08
   2.51699996       1.73559993E-08
   2.51799989       1.77484143E-08
   2.51900005       1.81482367E-08
   2.51999998       1.85556033E-08
   2.52099991       1.89706544E-08
   2.52200007       1.93935339E-08
   2.52300000       1.98243839E-08
   2.52399993       2.02633554E-08
   2.52500010       2.07105888E-08
   2.52600002       2.11662350E-08
   2.52699995       2.16304414E-08
   2.52800012       2.21033556E-08
   2.52900004       2.25851284E-08
   2.52999997       2.30759145E-08
   2.53099990       2.35758755E-08
   2.53200006       2.40851747E-08
   2.53299999       2.46039811E-08
   2.53399992       2.51324721E-08
   2.53500009       2.56708219E-08
   2.53600001       2.62192188E-08
   2.53699994       2.67778404E-08
   2.53800011       2.73468785E-08
   2.53900003       2.79265109E-08
   2.53999996       2.85169239E-08
   2.54099989       2.91183042E-08
   2.54200006       2.97308276E-08
   2.54299998       3.03546734E-08
   2.54399991       3.09900194E-08
   2.54500008       3.16370432E-08
   2.54600000       3.22959117E-08
   2.54699993       3.29668026E-08
   2.54800010       3.36499006E-08
   2.54900002       3.43453763E-08
   2.54999995       3.50534286E-08
   2.55100012       3.57742422E-08
   2.55200005       3.65080091E-08
   2.55299997       3.72549174E-08
   2.55399990       3.80151590E-08
   2.55500007       3.87889223E-08
   2.55599999       3.95763990E-08
   2.55699992       4.03777776E-08
   2.55800009       4.11932497E-08
   2.55900002       4.20230073E-08
   2.55999994       4.28672493E-08
   2.56100011       4.37261747E-08
   2.56200004       4.45999788E-08
   2.56299996       4.54888607E-08
   2.56399989       4.63930228E-08
   2.56500006       4.73126711E-08
   2.56599998       4.82480189E-08
   2.56699991       4.91992829E-08
   2.56800008       5.01666797E-08
   2.56900001       5.11504403E-08
   2.56999993       5.21507886E-08
   2.57100010       5.31679376E-08
   2.57200003       5.42021112E-08
   2.57299995       5.52535333E-08
   2.57399988       5.63224170E-08
   2.57500005       5.74089825E-08
   2.57599998       5.85134572E-08
   2.57699990       5.96360863E-08
   2.57800007       6.07771113E-08
   2.57900000       6.19367881E-08
   2.57999992       6.31153725E-08
   2.58100009       6.43131202E-08
   2.58200002       6.55303225E-08
   2.58299994       6.67672495E-08
   2.58400011       6.80241783E-08
   2.58500004       6.93014073E-08
   2.58599997       7.05992420E-08
   2.58699989       7.19179738E-08
   2.58800006       7.32579082E-08
   2.58899999       7.46193720E-08
   2.58999991       7.60026353E-08
   2.59100008       7.74080178E-08
   2.59200001       7.88358392E-08
   2.59299994       8.02864477E-08
   2.59400010       8.17602199E-08
   2.59500003       8.32575395E-08
   2.59599996       8.47788399E-08
   2.59699988       8.63245333E-08
   2.59800005       8.78950885E-08
   2.59899998       8.94909320E-08
   2.59999990       9.11125397E-08
   2.60100007       9.27603807E-08
   2.60200000       9.44349239E-08
   2.60299993       9.61366453E-08
   2.60400009       9.78660424E-08
   2.60500002       9.96235698E-08
   2.60599995       1.01409704E-07
   2.60700011       1.03224892E-07
   2.60800004       1.05069589E-07
   2.60899997       1.06944235E-07
   2.60999990       1.08849306E-07
   2.61100006       1.10785273E-07
   2.61199999       1.12752645E-07
   2.61299992       1.14751913E-07
   2.61400008       1.16783596E-07
   2.61500001       1.18848213E-07
   2.61599994       1.20946282E-07
   2.61700010       1.23078337E-07
   2.61800003       1.25244839E-07
   2.61899996       1.27446327E-07
   2.61999989       1.29683258E-07
   2.62100005       1.31956114E-07
   2.62199998       1.34265335E-07
   2.62299991       1.36611362E-07
   2.62400007       1.38994622E-07
   2.62500000       1.41415541E-07
   2.62599993       1.43874601E-07
   2.62700009       1.46372230E-07
   2.62800002       1.48908882E-07
   2.62899995       1.51485040E-07
   2.63000011       1.54101144E-07
   2.63100004       1.56757665E-07
   2.63199997       1.59455098E-07
   2.63299990       1.62193928E-07
   2.63400006       1.64974580E-07
   2.63499999       1.67797538E-07
   2.63599992       1.70663199E-07
   2.63700008       1.73571991E-07
   2.63800001       1.76524239E-07
   2.63899994       1.79520271E-07
   2.64000010       1.82560399E-07
   2.64100003       1.85644879E-07
   2.64199996       1.88773996E-07
   2.64299989       1.91948018E-07
   2.64400005       1.95167246E-07
   2.64499998       1.98431934E-07
   2.64599991       2.01742353E-07
   2.64700007       2.05098772E-07
   2.64800000       2.08501504E-07
   2.64899993       2.11950749E-07
   2.65000010       2.15446846E-07
   2.65100002       2.18989982E-07
   2.65199995       2.22580454E-07
   2.65300012       2.26218518E-07
   2.65400004       2.29904458E-07
   2.65499997       2.33638602E-07
   2.65599990       2.37421219E-07
   2.65700006       2.41252707E-07
   2.65799999       2.45133407E-07
   2.65899992       2.49063902E-07
   2.66000009       2.53044703E-07
   2.66100001       2.57076522E-07
   2.66199994       2.61160096E-07
   2.66300011       2.65296364E-07
   2.66400003       2.69486321E-07
   2.66499996       2.73731047E-07
   2.66599989       2.78031706E-07
   2.66700006       2.82389522E-07
   2.66799998       2.86805772E-07
   2.66899991       2.91281879E-07
   2.67000008       2.95819234E-07
   2.67100000       3.00419430E-07
   2.67199993       3.05084143E-07
   2.67300010       3.09815107E-07
   2.67400002       3.14614113E-07
   2.67499995       3.19483007E-07
   2.67600012       3.24423667E-07
   2.67700005       3.29438024E-07
   2.67799997       3.34527982E-07
   2.67899990       3.39695532E-07
   2.68000007       3.44942805E-07
   2.68099999       3.50271790E-07
   2.68199992       3.55684534E-07
   2.68300009       3.61182998E-07
   2.68400002       3.66769029E-07
   2.68499994       3.72444447E-07
   2.68600011       3.78210842E-07
   2.68700004       3.84069892E-07
   2.68799996       3.90023132E-07
   2.68899989       3.96072096E-07
   2.69000006       4.02218348E-07
   2.69099998       4.08463535E-07
   2.69199991       4.14809165E-07
   2.69300008       4.21256800E-07
   2.69400001       4.27807947E-07
   2.69499993       4.34464141E-07
   2.69600010       4.41226945E-07
   2.69700003       4.48097893E-07
   2.69799995       4.55078634E-07
   2.69899988       4.62170988E-07
   2.70000005       4.69376630E-07
   2.70099998       4.76697409E-07
   2.70199990       4.84135001E-07
   2.70300007       4.91691139E-07
   2.70400000       4.99367502E-07
   2.70499992       5.07165964E-07
   2.70600009       5.15088232E-07
   2.70700002       5.23136123E-07
   2.70799994       5.31311628E-07
   2.70900011       5.39616622E-07
   2.71000004       5.48053208E-07
   2.71099997       5.56623093E-07
   2.71199989       5.65328264E-07
   2.71300006       5.74170656E-07
   2.71399999       5.83152030E-07
   2.71499991       5.92274205E-07
   2.71600008       6.01539170E-07
   2.71700001       6.10948518E-07
   2.71799994       6.20504295E-07
   2.71900010       6.30208092E-07
   2.72000003       6.40061785E-07
   2.72099996       6.50067193E-07
   2.72199988       6.60226249E-07
   2.72300005       6.70540942E-07
   2.72399998       6.81013319E-07
   2.72499990       6.91645482E-07
   2.72600007       7.02439706E-07
   2.72700000       7.13398322E-07
   2.72799993       7.24523659E-07
   2.72900009       7.35818389E-07
   2.73000002       7.47284957E-07
   2.73099995       7.58925978E-07
   2.73200011       7.70743839E-07
   2.73300004       7.82741154E-07
   2.73399997       7.94920254E-07
   2.73499990       8.07283413E-07
   2.73600006       8.19833190E-07
   2.73699999       8.32571914E-07
   2.73799992       8.45501916E-07
   2.73900008       8.58625242E-07
   2.74000001       8.71944167E-07
   2.74099994       8.85460395E-07
   2.74200010       8.99175859E-07
   2.74300003       9.13092151E-07
   2.74399996       9.27210863E-07
   2.74499989       9.41533528E-07
   2.74600005       9.56061285E-07
   2.74699998       9.70795099E-07
   2.74799991       9.85736051E-07
   2.74900007       1.00088471E-06
   2.75000000       1.01624141E-06
   2.75099993       1.03180639E-06
   2.75200009       1.04758010E-06
   2.75300002       1.06356242E-06
   2.75399995       1.07975325E-06
   2.75500011       1.09615291E-06
   2.75600004       1.11276086E-06
   2.75699997       1.12957719E-06
   2.75799990       1.14660145E-06
   2.75900006       1.16383364E-06
   2.75999999       1.18127377E-06
   2.76099992       1.19892184E-06
   2.76200008       1.21677760E-06
   2.76300001       1.23484097E-06
   2.76399994       1.25311203E-06
   2.76500010       1.27159069E-06
   2.76600003       1.29027694E-06
   2.76699996       1.30917056E-06
   2.76799989       1.32827142E-06
   2.76900005       1.34758000E-06
   2.76999998       1.36709639E-06
   2.77099991       1.38682060E-06
   2.77200007       1.40675320E-06
   2.77300000       1.42689430E-06
   2.77399993       1.44724390E-06
   2.77500010       1.46780224E-06
   2.77600002       1.48856952E-06
   2.77699995       1.50954600E-06
   2.77800012       1.53073188E-06
   2.77900004       1.55212729E-06
   2.77999997       1.57373279E-06
   2.78099990       1.59554850E-06
   2.78200006       1.61757475E-06
   2.78299999       1.63981201E-06
   2.78399992       1.66226039E-06
   2.78500009       1.68492056E-06
   2.78600001       1.70779344E-06
   2.78699994       1.73087949E-06
   2.78800011       1.75417995E-06
   2.78900003       1.77769653E-06
   2.78999996       1.80143070E-06
   2.79099989       1.82538429E-06
   2.79200006       1.84955923E-06
   2.79299998       1.87395722E-06
   2.79399991       1.89858019E-06
   2.79500008       1.92343032E-06
   2.79600000       1.94850941E-06
   2.79699993       1.97381996E-06
   2.79800010       1.99936471E-06
   2.79900002       2.02514616E-06
   2.79999995       2.05116680E-06
   2.80100012       2.07742892E-06
   2.80200005       2.10393478E-06
   2.80299997       2.13068620E-06
   2.80399990       2.15768546E-06
   2.80500007       2.18493528E-06
   2.80599999       2.21243818E-06
   2.80699992       2.24019641E-06
   2.80800009       2.26821317E-06
   2.80900002       2.29649072E-06
   2.80999994       2.32503180E-06
   2.81100011       2.35383800E-06
   2.81200004       2.38291136E-06
   2.81299996       2.41225462E-06
   2.81399989       2.44187004E-06
   2.81500006       2.47176013E-06
   2.81599998       2.50192807E-06
   2.81699991       2.53237613E-06
   2.81800008       2.56310796E-06
   2.81900001       2.59412582E-06
   2.81999993       2.62543290E-06
   2.82100010       2.65703216E-06
   2.82200003       2.68892677E-06
   2.82299995       2.72112061E-06
   2.82399988       2.75361754E-06
   2.82500005       2.78642165E-06
   2.82599998       2.81953726E-06
   2.82699990       2.85296801E-06
   2.82800007       2.88671754E-06
   2.82900000       2.92078948E-06
   2.82999992       2.95518748E-06
   2.83100009       2.98991563E-06
   2.83200002       3.02497710E-06
   2.83299994       3.06037668E-06
   2.83400011       3.09611801E-06
   2.83500004       3.13220539E-06
   2.83599997       3.16864225E-06
   2.83699989       3.20543199E-06
   2.83800006       3.24257826E-06
   2.83899999       3.28008468E-06
   2.83999991       3.31795513E-06
   2.84100008       3.35619325E-06
   2.84200001       3.39480243E-06
   2.84299994       3.43378701E-06
   2.84400010       3.47315017E-06
   2.84500003       3.51289441E-06
   2.84599996       3.55302359E-06
   2.84699988       3.59354021E-06
   2.84800005       3.63444701E-06
   2.84899998       3.67574785E-06
   2.84999990       3.71744545E-06
   2.85100007       3.75954346E-06
   2.85200000       3.80204438E-06
   2.85299993       3.84495206E-06
   2.85400009       3.88826993E-06
   2.85500002       3.93200116E-06
   2.85599995       3.97614940E-06