   2.00000000       0.00000000    
   2.00099993       0.00000000    
   2.00200009       0.00000000    
   2.00300002       0.00000000    
   2.00399995       0.00000000    
   2.00500011       1.88660862E-26
   2.00600004       1.85932851E-25
   2.00699997       9.28638577E-25
   2.00799990       3.16956186E-24
   2.00900006       8.30727331E-24
   2.00999999       1.75694691E-23
   2.01099992       3.02928678E-23
   2.01200008       4.11804262E-23
   2.01300001       3.73520495E-23
   2.01399994      -3.72138861E-24
   2.01500010      -1.14373383E-22
   2.01600003      -3.33411367E-22
   2.01699996      -6.96903907E-22
   2.01799989      -1.22143133E-21
   2.01900005      -1.88149097E-21
   2.01999998      -2.58751789E-21
   2.02099991      -3.17397663E-21
   2.02200007      -3.40444801E-21
   2.02300000      -2.99186563E-21
   2.02399993      -1.62314525E-21
   2.02500010       1.01977718E-21
   2.02600002       5.22868741E-21
   2.02699995       1.11831620E-20
   2.02800012       1.87565660E-20
   2.02900004       2.72062224E-20
   2.02999997       3.48454906E-20
   2.03099990       3.89158073E-20
   2.03200006       3.59260405E-20
   2.03299999       2.26226417E-20
   2.03399992      -2.51553803E-21
   2.03500009      -3.77120333E-20
   2.03600001      -7.69725875E-20
   2.03699994      -1.10532513E-19
   2.03800011      -1.27062555E-19
   2.03900003      -1.17404252E-19
   2.03999996      -7.88818044E-20
   2.04099989      -1.86721208E-20
   2.04200006       4.54353508E-20
   2.04299998       8.81245590E-20
   2.04399991       8.36950714E-20
   2.04500008       1.60413941E-20
   2.04600000      -1.11194568E-19
   2.04699993      -2.67906972E-19
   2.04800010      -3.97813697E-19
   2.04900002      -4.28025668E-19
   2.04999995      -2.87736198E-19
   2.05100012       6.71911638E-20
   2.05200005       6.29788332E-19
   2.05299997       1.32536854E-18
   2.05399990       2.01002118E-18
   2.05500007       2.48883736E-18
   2.05599999       2.55390794E-18
   2.05699992       2.03664998E-18
   2.05800009       8.63998267E-19
   2.05900002      -8.95159453E-19
   2.05999994      -3.00719423E-18
   2.06100011      -5.08548490E-18
   2.06200004      -6.64158162E-18
   2.06299996      -7.17257987E-18
   2.06399989      -6.27271449E-18
   2.06500006      -3.74940540E-18
   2.06599998       2.80993151E-19
   2.06699991       5.34308921E-18
   2.06800008       1.06185961E-17
   2.06900001       1.50392635E-17
   2.06999993       1.74530047E-17
   2.07100010       1.68438573E-17
   2.07200003       1.25719616E-17
   2.07299995       4.58993754E-18
   2.07399988      -6.41101081E-18
   2.07500005      -1.89665880E-17
   2.07599998      -3.09444594E-17
   2.07699990      -3.97965559E-17
   2.07800007      -4.29416786E-17
   2.07900000      -3.82353154E-17
   2.07999992      -2.44602088E-17
   2.08100009      -1.75419345E-18
   2.08200002       2.81135132E-17
   2.08299994       6.16973439E-17
   2.08400011       9.41152601E-17
   2.08500004       1.19584773E-16
   2.08599997       1.32213584E-16
   2.08699989       1.26947620E-16
   2.08800006       1.00533599E-16
   2.08899999       5.23279154E-17
   2.08999991      -1.52103642E-17
   2.09100008      -9.64670471E-17
   2.09200001      -1.83117472E-16
   2.09299994      -2.65041003E-16
   2.09400010      -3.31592567E-16
   2.09500003      -3.73051177E-16
   2.09599996      -3.82026921E-16
   2.09699988      -3.54609708E-16
   2.09800005      -2.91080225E-16
   2.09899998      -1.96068910E-16
   2.09999990      -7.81310470E-17
   2.10100007       5.12116649E-17
   2.10200000       1.78839545E-16
   2.10299993       2.91634608E-16
   2.10400009       3.78099838E-16
   2.10500002       4.29778959E-16
   2.10599995       4.42277486E-16
   2.10700011       4.15731844E-16
   2.10800004       3.54648566E-16
   2.10899997       2.67128436E-16
   2.10999990       1.63593601E-16
   2.11100006       5.52271040E-17
   2.11199999      -4.76042376E-17
   2.11299992      -1.36661844E-16
   2.11400008      -2.06645043E-16
   2.11500001      -2.55361825E-16
   2.11599994      -2.83256103E-16
   2.11700010      -2.92426955E-16
   2.11800003      -2.85387846E-16
   2.11899996      -2.63871754E-16
   2.11999989      -2.27980612E-16
   2.12100005      -1.75900368E-16
   2.12199998      -1.04277849E-16
   2.12299991      -9.20663520E-18
   2.12400007       1.12369455E-16
   2.12500000       2.61128955E-16
   2.12599993       4.34057481E-16
   2.12700009       6.23662206E-16
   2.12800002       8.17946048E-16
   2.12899995       1.00124874E-15
   2.13000011       1.15589854E-15
   2.13100004       1.26446762E-15
   2.13199997       1.31228528E-15
   2.13299990       1.28978141E-15
   2.13400006       1.19421640E-15
   2.13499999       1.03041897E-15
   2.13599992       8.10301999E-16
   2.13700008       5.51132787E-16
   2.13800001       2.72777961E-16
   2.13899994      -5.63745756E-18
   2.14000010      -2.69061127E-16
   2.14100003      -5.09194174E-16
   2.14199996      -7.25973993E-16
   2.14299989      -9.27529876E-16
   2.14400005      -1.12858606E-15
   2.14499998      -1.34762741E-15
   2.14599991      -1.60341061E-15
   2.14700007      -1.91156850E-15
   2.14800000      -2.28203149E-15
   2.14899993      -2.71779733E-15
   2.15000010      -3.21525004E-15
   2.15100002      -3.76584580E-15
   2.15199995      -4.35862402E-15
   2.15300012      -4.98278863E-15
   2.15400004      -5.62957833E-15
   2.15499997      -6.29283223E-15
   2.15599990      -6.96799541E-15
   2.15700006      -7.64976122E-15
   2.15799999      -8.32893257E-15
   2.15899992      -8.98935230E-15
   2.16000009      -9.60580763E-15
   2.16100001      -1.01436388E-14
   2.16199994      -1.05603951E-14
   2.16300011      -1.08094584E-14
   2.16400003      -1.08450626E-14
   2.16499996      -1.06278511E-14
   2.16599989      -1.01299957E-14
   2.16700006      -9.33898463E-15
   2.16799998      -8.25951314E-15
   2.16899991      -6.91325633E-15
   2.17000008      -5.33675353E-15
   2.17100000      -3.57788750E-15
   2.17199993      -1.69162676E-15
   2.17300010       2.64330210E-16
   2.17400002       2.23352424E-15
   2.17499995       4.16404997E-15
   2.17600012       6.01117048E-15
   2.17700005       7.73931802E-15
   2.17799997       9.32358557E-15
   2.17899990       1.07507641E-14
   2.18000007       1.20198066E-14
   2.18099999       1.31415417E-14
   2.18199992       1.41374017E-14
   2.18300009       1.50370761E-14
   2.18400002       1.58752118E-14
   2.18499994       1.66876028E-14
   2.18600011       1.75075798E-14
   2.18700004       1.83634253E-14
   2.18799996       1.92776161E-14
   2.18899989       2.02683211E-14
   2.19000006       2.13532280E-14
   2.19099998       2.25551287E-14
   2.19199991       2.39083689E-14
   2.19300008       2.54649749E-14
   2.19400001       2.72994179E-14
   2.19499993       2.95111937E-14
   2.19600010       3.22250635E-14
   2.19700003       3.55892243E-14
   2.19799995       3.97722389E-14
   2.19899988       4.49595060E-14
   2.20000005       5.13502306E-14
   2.20099998       5.91552428E-14
   2.20199990       6.85955538E-14
   2.20300007       7.99014040E-14
   2.20400000       9.33107554E-14
   2.20499992       1.09066917E-13
   2.20600009       1.27414667E-13
   2.20700002       1.48595329E-13
   2.20799994       1.72841125E-13
   2.20900011       2.00370238E-13
   2.21000004       2.31383191E-13
   2.21099997       2.66061858E-13
   2.21199989       3.04570659E-13
   2.21300006       3.47060163E-13
   2.21399999       3.93671803E-13
   2.21499991       4.44541837E-13
   2.21600008       4.99803974E-13
   2.21700001       5.59589918E-13
   2.21799994       6.24026384E-13
   2.21900010       6.93230250E-13
   2.22000003       7.67303376E-13
   2.22099996       8.46326373E-13
   2.22199988       9.30355185E-13
   2.22300005       1.01941914E-12
   2.22399998       1.11352225E-12
   2.22499990       1.21264565E-12
   2.22600007       1.31675237E-12
   2.22700000       1.42579188E-12
   2.22799993       1.53970380E-12
   2.22900009       1.65842177E-12
   2.23000002       1.78187695E-12
   2.23099995       1.91000080E-12
   2.23200011       2.04272883E-12
   2.23300004       2.18000509E-12
   2.23399997       2.32178426E-12
   2.23499990       2.46803706E-12
   2.23600006       2.61874918E-12
   2.23699999       2.77391933E-12
   2.23799992       2.93355379E-12
   2.23900008       3.09765668E-12
   2.24000001       3.26622019E-12
   2.24099994       3.43921311E-12
   2.24200010       3.61657037E-12
   2.24300003       3.79819093E-12
   2.24399996       3.98393558E-12
   2.24499989       4.17363279E-12
   2.24600005       4.36708699E-12
   2.24699998       4.56408782E-12
   2.24799991       4.76441976E-12
   2.24900007       4.96786813E-12
   2.25000000       5.17422476E-12
   2.25099993       5.38328540E-12
   2.25200009       5.59484620E-12
   2.25300002       5.80870118E-12
   2.25399995       6.02463652E-12
   2.25500011       6.24242585E-12
   2.25600004       6.46183367E-12
   2.25699997       6.68261280E-12
   2.25799990       6.90451168E-12
   2.25900006       7.12727924E-12
   2.25999999       7.35066955E-12
   2.26099992       7.57444715E-12
   2.26200008       7.79839474E-12
   2.26300001       8.02231285E-12
   2.26399994       8.24602713E-12
   2.26500010       8.46939272E-12
   2.26600003       8.69229341E-12
   2.26699996       8.91464593E-12
   2.26799989       9.13639650E-12
   2.26900005       9.35751737E-12
   2.26999998       9.57799638E-12
   2.27099991       9.79782748E-12
   2.27200007       1.00169959E-11
   2.27300000       1.02354635E-11
   2.27399993       1.04531592E-11
   2.27500010       1.06699675E-11
   2.27600002       1.08857263E-11
   2.27699995       1.11002336E-11
   2.27800012       1.13132411E-11
   2.27900004       1.15244802E-11
   2.27999997       1.17336522E-11
   2.28099990       1.19404547E-11
   2.28200006       1.21445744E-11
   2.28299999       1.23456965E-11
   2.28399992       1.25435001E-11
   2.28500009       1.27376495E-11
   2.28600001       1.29277908E-11
   2.28699994       1.31135354E-11
   2.28800011       1.32944506E-11
   2.28900003       1.34700402E-11
   2.28999996       1.36397360E-11
   2.29099989       1.38028851E-11
   2.29200006       1.39587352E-11
   2.29299998       1.41064400E-11
   2.29399991       1.42450635E-11
   2.29500008       1.43735857E-11
   2.29600000       1.44909319E-11
   2.29699993       1.45959946E-11
   2.29800010       1.46876591E-11
   2.29900002       1.47648300E-11
   2.29999995       1.48264474E-11
   2.30100012       1.48714929E-11
   2.30200005       1.48989866E-11
   2.30299997       1.49079638E-11
   2.30399990       1.48974513E-11
   2.30500007       1.48664379E-11
   2.30599999       1.48138359E-11
   2.30699992       1.47384761E-11
   2.30800009       1.46390903E-11
   2.30900002       1.45143168E-11
   2.30999994       1.43627306E-11
   2.31100011       1.41828632E-11
   2.31200004       1.39732401E-11
   2.31299996       1.37324110E-11
   2.31399989       1.34589718E-11
   2.31500006       1.31515805E-11
   2.31599998       1.28089518E-11
   2.31699991       1.24298479E-11
   2.31800008       1.20130668E-11
   2.31900001       1.15574173E-11
   2.31999993       1.10617132E-11
   2.32100010       1.05247608E-11
   2.32200003       9.94537265E-12
   2.32299995       9.32237534E-12
   2.32399988       8.65463430E-12
   2.32500005       7.94107835E-12
   2.32599998       7.18072693E-12
   2.32699990       6.37270705E-12
   2.32800007       5.51626149E-12
   2.32900000       4.61074668E-12
   2.32999992       3.65562094E-12
   2.33100009       2.65041830E-12
   2.33200002       1.59472143E-12
   2.33299994       4.88126683E-13
   2.33400011      -6.69786655E-13
   2.33500004      -1.87947791E-12
   2.33599997      -3.14145975E-12
   2.33699989      -4.45629731E-12
   2.33800006      -5.82459298E-12
   2.33899999      -7.24695521E-12
   2.33999991      -8.72395906E-12
   2.34100008      -1.02560894E-11
   2.34200001      -1.18436806E-11
   2.34299994      -1.34868609E-11
   2.34400010      -1.51854883E-11
   2.34500003      -1.69391116E-11
   2.34599996      -1.87469380E-11
   2.34699988      -2.06078227E-11
   2.34800005      -2.25202981E-11
   2.34899998      -2.44826312E-11
   2.34999990      -2.64929051E-11
   2.35100007      -2.85491682E-11
   2.35200000      -3.06495905E-11
   2.35299993      -3.27926922E-11
   2.35400009      -3.49775695E-11
   2.35500002      -3.72041599E-11
   2.35599995      -3.94735009E-11
   2.35700011      -4.17879793E-11
   2.35800004      -4.41515262E-11
   2.35899997      -4.65697689E-11
   2.35999990      -4.90500973E-11
   2.36100006      -5.16016084E-11
   2.36199999      -5.42349880E-11
   2.36299992      -5.69622509E-11
   2.36400008      -5.97963970E-11
   2.36500001      -6.27510474E-11
   2.36599994      -6.58399932E-11
   2.36700010      -6.90767860E-11
   2.36800003      -7.24743876E-11
   2.36899996      -7.60448371E-11
   2.36999989      -7.97991326E-11
   2.37100005      -8.37471550E-11
   2.37199998      -8.78978001E-11
   2.37299991      -9.22591933E-11
   2.37400007      -9.68390576E-11
   2.37500000      -1.01645151E-10
   2.37599993      -1.06685688E-10
   2.37700009      -1.11969829E-10
   2.37800002      -1.17507976E-10
   2.37899995      -1.23312055E-10
   2.38000011      -1.29395550E-10
   2.38100004      -1.35773365E-10
   2.38199997      -1.42461556E-10
   2.38299990      -1.49476861E-10
   2.38400006      -1.56836169E-10
   2.38499999      -1.64555883E-10
   2.38599992      -1.72651352E-10
   2.38700008      -1.81136425E-10
   2.38800001      -1.90023067E-10
   2.38899994      -1.99321351E-10
   2.39000010      -2.09039536E-10
   2.39100003      -2.19184434E-10
   2.39199996      -2.29762057E-10
   2.39299989      -2.40778231E-10
   2.39400005      -2.52239535E-10
   2.39499998      -2.64153838E-10
   2.39599991      -2.76531215E-10
   2.39700007      -2.89384183E-10
   2.39800000      -3.02727982E-10
   2.39899993      -3.16580567E-10
   2.40000010      -3.30962202E-10
   2.40100002      -3.45894868E-10
   2.40199995      -3.61401464E-10
   2.40300012      -3.77504999E-10
   2.40400004      -3.94227678E-10
   2.40499997      -4.11590401E-10
   2.40599990      -4.29611874E-10
   2.40700006      -4.48308751E-10
   2.40799999      -4.67695604E-10
   2.40899992      -4.87785146E-10
   2.41000009      -5.08589337E-10
   2.41100001      -5.30119948E-10
   2.41199994      -5.52389523E-10
   2.41300011      -5.75412329E-10
   2.41400003      -5.99205130E-10
   2.41499996      -6.23787355E-10
   2.41599989      -6.49181486E-10
   2.41700006      -6.75412504E-10
   2.41799998      -7.02507275E-10
   2.41899991      -7.30493666E-10
   2.42000008      -7.59399765E-10
   2.42100000      -7.89252330E-10
   2.42199993      -8.20076340E-10
   2.42300010      -8.51894055E-10
   2.42400002      -8.84725182E-10
   2.42499995      -9.18586818E-10
   2.42600012      -9.53493839E-10
   2.42700005      -9.89460291E-10
   2.42799997      -1.02650022E-09
   2.42899990      -1.06462950E-09
   2.43000007      -1.10386611E-09
   2.43099999      -1.14423193E-09
   2.43199992      -1.18575327E-09
   2.43300009      -1.22846022E-09
   2.43400002      -1.27238775E-09
   2.43499994      -1.31757349E-09
   2.43600011      -1.36405709E-09
   2.43700004      -1.41187884E-09
   2.43799996      -1.46107826E-09
   2.43899989      -1.51169188E-09
   2.44000006      -1.56375324E-09
   2.44099998      -1.61729163E-09
   2.44199991      -1.67233216E-09
   2.44300008      -1.72889658E-09
   2.44400001      -1.78700388E-09
   2.44499993      -1.84667259E-09
   2.44600010      -1.90792204E-09
   2.44700003      -1.97077421E-09
   2.44799995      -2.03525574E-09
   2.44899988      -2.10139905E-09
   2.45000005      -2.16924279E-09
   2.45099998      -2.23883245E-09
   2.45199990      -2.31022002E-09
   2.45300007      -2.38346232E-09
   2.45400000      -2.45861931E-09
   2.45499992      -2.53575272E-09
   2.45600009      -2.61492428E-09
   2.45700002      -2.69619349E-09
   2.45799994      -2.77961720E-09
   2.45900011      -2.86524915E-09
   2.46000004      -2.95313907E-09
   2.46099997      -3.04333359E-09
   2.46199989      -3.13587933E-09
   2.46300006      -3.23082250E-09
   2.46399999      -3.32821215E-09
   2.46499991      -3.42810225E-09
   2.46600008      -3.53055141E-09
   2.46700001      -3.63562691E-09
   2.46799994      -3.74340114E-09
   2.46900010      -3.85395360E-09
   2.47000003      -3.96736732E-09
   2.47099996      -4.08372847E-09
   2.47199988      -4.20312229E-09
   2.47300005      -4.32563185E-09
   2.47399998      -4.45133530E-09
   2.47499990      -4.58030369E-09
   2.47600007      -4.71260098E-09
   2.47700000      -4.84828533E-09
   2.47799993      -4.98740604E-09
   2.47900009      -5.13001197E-09
   2.48000002      -5.27614841E-09
   2.48099995      -5.42586331E-09
   2.48200011      -5.57920865E-09
   2.48300004      -5.73624437E-09
   2.48399997      -5.89703930E-09
   2.48499990      -6.06166939E-09
   2.48600006      -6.23022123E-09
   2.48699999      -6.40278763E-09
   2.48799992      -6.57946453E-09
   2.48900008      -6.76035006E-09
   2.49000001      -6.94554103E-09
   2.49099994      -7.13512804E-09
   2.49200010      -7.32919681E-09
   2.49300003      -7.52782459E-09
   2.49399996      -7.73108066E-09
   2.49499989      -7.93902988E-09
   2.49600005      -8.15173440E-09
   2.49699998      -8.36925729E-09
   2.49799991      -8.59166427E-09
   2.49900007      -8.81902729E-09
   2.50000000      -9.05143072E-09
   2.50099993      -9.28896693E-09
   2.50200009      -9.53174162E-09
   2.50300002      -9.77986758E-09
   2.50399995      -1.00334656E-08
   2.50500011      -1.02926627E-08
   2.50600004      -1.05575850E-08
   2.50699997      -1.08283604E-08
   2.50799990      -1.11051115E-08
   2.50900006      -1.13879626E-08
   2.50999999      -1.16770282E-08
   2.51099992      -1.19724257E-08
   2.51200008      -1.22742696E-08
   2.51300001      -1.25826833E-08
   2.51399994      -1.28977948E-08
   2.51500010      -1.32197435E-08
   2.51600003      -1.35486822E-08
   2.51699996      -1.38847742E-08
   2.51799989      -1.42281982E-08
   2.51900005      -1.45791388E-08
   2.51999998      -1.49377843E-08
   2.52099991      -1.53043302E-08
   2.52200007      -1.56789604E-08
   2.52300000      -1.60618594E-08
   2.52399993      -1.64531961E-08
   2.52500010      -1.68531322E-08
   2.52600002      -1.72618204E-08
   2.52699995      -1.76794082E-08
   2.52800012      -1.81060429E-08
   2.52900004      -1.85418685E-08
   2.52999997      -1.89870448E-08
   2.53099990      -1.94417389E-08
   2.53200006      -1.99061319E-08
   2.53299999      -2.03804227E-08
   2.53399992      -2.08648192E-08
   2.53500009      -2.13595470E-08
   2.53600001      -2.18648335E-08
   2.53699994      -2.23809131E-08
   2.53800011      -2.29080115E-08
   2.53900003      -2.34463524E-08
   2.53999996      -2.39961437E-08
   2.54099989      -2.45575809E-08
   2.54200006      -2.51308503E-08
   2.54299998      -2.57161226E-08
   2.54399991      -2.63135682E-08
   2.54500008      -2.69233542E-08
   2.54600000      -2.75456511E-08
   2.54699993      -2.81806329E-08
   2.54800010      -2.88284951E-08
   2.54900002      -2.94894331E-08
   2.54999995      -3.01636547E-08
   2.55100012      -3.08513819E-08
   2.55200005      -3.15528297E-08
   2.55299997      -3.22682254E-08
   2.55399990      -3.29977823E-08
   2.55500007      -3.37417028E-08
   2.55599999      -3.45001752E-08
   2.55699992      -3.52733842E-08
   2.55800009      -3.60614969E-08
   2.55900002      -3.68646660E-08
   2.55999994      -3.76830549E-08
   2.56100011      -3.85168235E-08
   2.56200004      -3.93661352E-08
   2.56299996      -4.02311855E-08
   2.56399989      -4.11121803E-08
   2.56500006      -4.20093436E-08
   2.56599998      -4.29229203E-08
   2.56699991      -4.38531806E-08
   2.56800008      -4.48004123E-08
   2.56900001      -4.57649136E-08
   2.56999993      -4.67469832E-08
   2.57100010      -4.77469193E-08
   2.57200003      -4.87650098E-08
   2.57299995      -4.98015460E-08
   2.57399988      -5.08568050E-08
   2.57500005      -5.19310497E-08
   2.57599998      -5.30245536E-08
   2.57699990      -5.41375869E-08
   2.57800007      -5.52704265E-08
   2.57900000      -5.64233780E-08
   2.57999992      -5.75967576E-08
   2.58100009      -5.87909170E-08
   2.58200002      -6.00062222E-08
   2.58299994      -6.12430995E-08
   2.58400011      -6.25019609E-08
   2.58500004      -6.37832756E-08
   2.58599997      -6.50875123E-08
   2.58699989      -6.64151472E-08
   2.58800006      -6.77666563E-08
   2.58899999      -6.91425370E-08
   2.58999991      -7.05432441E-08
   2.59100008      -7.19692821E-08
   2.59200001      -7.34211056E-08
   2.59299994      -7.48991980E-08
   2.59400010      -7.64040422E-08
   2.59500003      -7.79361429E-08
   2.59599996      -7.94960329E-08
   2.59699988      -8.10842522E-08
   2.59800005      -8.27013906E-08
   2.59899998      -8.43480592E-08
   2.59999990      -8.60248974E-08
   2.60100007      -8.77325803E-08
   2.60200000      -8.94717687E-08
   2.60299993      -9.12431659E-08
   2.60400009      -9.30474613E-08
   2.60500002      -9.48853085E-08
   2.60599995      -9.67573968E-08
   2.60700011      -9.86643371E-08
   2.60800004      -1.00606783E-07
   2.60899997      -1.02585354E-07
   2.60999990      -1.04600637E-07
   2.61100006      -1.06653260E-07
   2.61199999      -1.08743798E-07
   2.61299992      -1.10872890E-07
   2.61400008      -1.13041160E-07
   2.61500001      -1.15249243E-07
   2.61599994      -1.17497805E-07
   2.61700010      -1.19787529E-07
   2.61800003      -1.22119076E-07
   2.61899996      -1.24493113E-07
   2.61999989      -1.26910308E-07
   2.62100005      -1.29371273E-07
   2.62199998      -1.31876618E-07
   2.62299991      -1.34426884E-07
   2.62400007      -1.37022596E-07
   2.62500000      -1.39664209E-07
   2.62599993      -1.42352135E-07
   2.62700009      -1.45086744E-07
   2.62800002      -1.47868349E-07
   2.62899995      -1.50697261E-07
   2.63000011      -1.53573751E-07
   2.63100004      -1.56498018E-07
   2.63199997      -1.59470275E-07
   2.63299990      -1.62490636E-07
   2.63400006      -1.65559229E-07
   2.63499999      -1.68676053E-07
   2.63599992      -1.71841123E-07
   2.63700008      -1.75054311E-07
   2.63800001      -1.78315517E-07
   2.63899994      -1.81624486E-07
   2.64000010      -1.84981005E-07
   2.64100003      -1.88384732E-07
   2.64199996      -1.91835298E-07
   2.64299989      -1.95332305E-07
   2.64400005      -1.98875398E-07
   2.64499998      -2.02464136E-07
   2.64599991      -2.06098207E-07
   2.64700007      -2.09777312E-07
   2.64800000      -2.13501195E-07
   2.64899993      -2.17269800E-07
   2.65000010      -2.21083098E-07
   2.65100002      -2.24941274E-07
   2.65199995      -2.28844627E-07
   2.65300012      -2.32793653E-07
   2.65400004      -2.36789049E-07
   2.65499997      -2.40831781E-07
   2.65599990      -2.44923029E-07
   2.65700006      -2.49064243E-07
   2.65799999      -2.53257127E-07
   2.65899992      -2.57503729E-07
   2.66000009      -2.61806321E-07
   2.66100001      -2.66167547E-07
   2.66199994      -2.70590306E-07
   2.66300011      -2.75077781E-07
   2.66400003      -2.79633525E-07
   2.66499996      -2.84261233E-07
   2.66599989      -2.88964912E-07
   2.66700006      -2.93748769E-07
   2.66799998      -2.98617209E-07
   2.66899991      -3.03574751E-07
   2.67000008      -3.08625971E-07
   2.67100000      -3.13775558E-07
   2.67199993      -3.19028146E-07
   2.67300010      -3.24388452E-07
   2.67400002      -3.29860939E-07
   2.67499995      -3.35450125E-07
   2.67600012      -3.41160245E-07
   2.67700005      -3.46995364E-07
   2.67799997      -3.52959347E-07
   2.67899990      -3.59055832E-07
   2.68000007      -3.65288116E-07
   2.68099999      -3.71659297E-07
   2.68199992      -3.78172160E-07
   2.68300009      -3.84829207E-07
   2.68400002      -3.91632767E-07
   2.68499994      -3.98584945E-07
   2.68600011      -4.05687615E-07
   2.68700004      -4.12942455E-07
   2.68799996      -4.20351114E-07
   2.68899989      -4.27915040E-07
   2.69000006      -4.35635712E-07
   2.69099998      -4.43514523E-07
   2.69199991      -4.51552864E-07
   2.69300008      -4.59752158E-07
   2.69400001      -4.68113996E-07
   2.69499993      -4.76639912E-07
   2.69600010      -4.85331668E-07
   2.69700003      -4.94191113E-07
   2.69799995      -5.03220122E-07
   2.69899988      -5.12420911E-07
   2.70000005      -5.21795698E-07
   2.70099998      -5.31346984E-07
   2.70199990      -5.41077270E-07
   2.70300007      -5.50989284E-07
   2.70400000      -5.61085926E-07
   2.70499992      -5.71369981E-07
   2.70600009      -5.81844688E-07
   2.70700002      -5.92512947E-07
   2.70799994      -6.03377998E-07
   2.70900011      -6.14442740E-07
   2.71000004      -6.25710470E-07
   2.71099997      -6.37183973E-07
   2.71199989      -6.48866376E-07
   2.71300006      -6.60760691E-07
   2.71399999      -6.72869760E-07
   2.71499991      -6.85196483E-07
   2.71600008      -6.97743928E-07
   2.71700001      -7.10514882E-07
   2.71799994      -7.23512585E-07
   2.71900010      -7.36740162E-07
   2.72000003      -7.50200911E-07
   2.72099996      -7.63898186E-07
   2.72199988      -7.77835510E-07
   2.72300005      -7.92016465E-07
   2.72399998      -8.06444632E-07
   2.72499990      -8.21123422E-07
   2.72600007      -8.36056529E-07
   2.72700000      -8.51247364E-07
   2.72799993      -8.66699281E-07
   2.72900009      -8.82415634E-07
   2.73000002      -8.98399492E-07
   2.73099995      -9.14653754E-07
   2.73200011      -9.31181148E-07
   2.73300004      -9.47984176E-07
   2.73399997      -9.65065396E-07
   2.73499990      -9.82426741E-07
   2.73600006      -1.00007003E-06
   2.73699999      -1.01799696E-06
   2.73799992      -1.03620891E-06
   2.73900008      -1.05470701E-06
   2.74000001      -1.07349206E-06
   2.74099994      -1.09256462E-06
   2.74200010      -1.11192480E-06
   2.74300003      -1.13157273E-06
   2.74399996      -1.15150794E-06
   2.74499989      -1.17173033E-06
   2.74600005      -1.19223898E-06
   2.74699998      -1.21303356E-06
   2.74799991      -1.23411348E-06
   2.74900007      -1.25547797E-06
   2.75000000      -1.27712678E-06
   2.75099993      -1.29905970E-06
   2.75200009      -1.32127627E-06
   2.75300002      -1.34377660E-06
   2.75399995      -1.36656058E-06
   2.75500011      -1.38962810E-06
   2.75600004      -1.41297926E-06
   2.75699997      -1.43661407E-06
   2.75799990      -1.46053219E-06
   2.75900006      -1.48473327E-06
   2.75999999      -1.50921676E-06
   2.76099992      -1.53398173E-06
   2.76200008      -1.55902717E-06
   2.76300001      -1.58435193E-06
   2.76399994      -1.60995444E-06
   2.76500010      -1.63583354E-06
   2.76600003      -1.66198731E-06
   2.76699996      -1.68841450E-06
   2.76799989      -1.71511351E-06
   2.76900005      -1.74208321E-06
   2.76999998      -1.76932235E-06
   2.77099991      -1.79682991E-06
   2.77200007      -1.82460485E-06
   2.77300000      -1.85264651E-06
   2.77399993      -1.88095396E-06
   2.77500010      -1.90952710E-06
   2.77600002      -1.93836513E-06
   2.77699995      -1.96746760E-06
   2.77800012      -1.99683541E-06
   2.77900004      -2.02646788E-06
   2.77999997      -2.05636593E-06
   2.78099990      -2.08653069E-06
   2.78200006      -2.11696329E-06
   2.78299999      -2.14766533E-06
   2.78399992      -2.17863931E-06
   2.78500009      -2.20988704E-06
   2.78600001      -2.24141127E-06
   2.78699994      -2.27321493E-06
   2.78800011      -2.30530077E-06
   2.78900003      -2.33767241E-06
   2.78999996      -2.37033305E-06
   2.79099989      -2.40328632E-06
   2.79200006      -2.43653585E-06
   2.79299998      -2.47008529E-06
   2.79399991      -2.50393805E-06
   2.79500008      -2.53809867E-06
   2.79600000      -2.57257057E-06
   2.79699993      -2.60735828E-06
   2.79800010      -2.64246682E-06
   2.79900002      -2.67790074E-06
   2.79999995      -2.71366525E-06
   2.80100012      -2.74976560E-06
   2.80200005      -2.78620723E-06
   2.80299997      -2.82299584E-06
   2.80399990      -2.86013665E-06
   2.80500007      -2.89763534E-06
   2.80599999      -2.93549715E-06
   2.80699992      -2.97372662E-06
   2.80800009      -3.01232899E-06
   2.80900002      -3.05130834E-06
   2.80999994      -3.09066854E-06
   2.81100011      -3.13041255E-06
   2.81200004      -3.17054423E-06
   2.81299996      -3.21106609E-06
   2.81399989      -3.25198084E-06
   2.81500006      -3.29329123E-06
   2.81599998      -3.33500020E-06
   2.81699991      -3.37711026E-06
   2.81800008      -3.41962436E-06
   2.81900001      -3.46254592E-06
   2.81999993      -3.50587857E-06
   2.82100010      -3.54962640E-06
   2.82200003      -3.59379328E-06
   2.82299995      -3.63838399E-06
   2.82399988      -3.68340307E-06
   2.82500005      -3.72885575E-06
   2.82599998      -3.77474748E-06
   2.82699990      -3.82108374E-06
   2.82800007      -3.86787133E-06
   2.82900000      -3.91511685E-06
   2.82999992      -3.96282758E-06
   2.83100009      -4.01101079E-06
   2.83200002      -4.05967421E-06
   2.83299994      -4.10882512E-06
   2.83400011      -4.15847217E-06
   2.83500004      -4.20862216E-06
   2.83599997      -4.25928329E-06
   2.83699989      -4.31046146E-06
   2.83800006      -4.36216442E-06
   2.83899999      -4.41439624E-06
   2.83999991      -4.46716331E-06
   2.84100008      -4.52046925E-06
   2.84200001      -4.57431861E-06
   2.84299994      -4.62871367E-06
   2.84400010      -4.68365897E-06
   2.84500003      -4.73915770E-06
   2.84599996      -4.79521259E-06
   2.84699988      -4.85182818E-06
   2.84800005      -4.90900811E-06
   2.84899998      -4.96675784E-06
   2.84999990      -5.02508328E-06
   2.85100007      -5.08398944E-06
   2.85200000      -5.14348267E-06
   2.85299993      -5.20357025E-06
   2.85400009      -5.26425856E-06
   2.85500002      -5.32555487E-06
   2.85599995      -5.38746644E-06