   2.00000000       0.00000000    
   2.00099993       0.00000000    
   2.00200009       0.00000000    
   2.00300002       0.00000000    
   2.00399995       0.00000000    
   2.00500011       0.00000000    
   2.00600004       0.00000000    
   2.00699997       0.00000000    
   2.00799990       0.00000000    
   2.00900006      -8.40779079E-45
   2.00999999       7.19434086E-38
   2.01099992       4.51488769E-37
   2.01200008       1.16672290E-36
   2.01300001       1.47260998E-36
   2.01399994       3.82464493E-36
   2.01500010       3.37278229E-35
   2.01600003       1.82540337E-34
   2.01699996       6.52583770E-34
   2.01799989       1.73915712E-33
   2.01900005       3.63262358E-33
   2.01999998       5.92424027E-33
   2.02099991       6.95390499E-33
   2.02200007       3.73266035E-33
   2.02300000      -6.48692517E-33
   2.02399993      -2.29099103E-32
   2.02500010      -3.84756346E-32
   2.02600002      -4.15663824E-32
   2.02699995      -2.34756272E-32
   2.02800012       1.34487310E-32
   2.02900004       5.57609851E-32
   2.02999997       8.89271292E-32
   2.03099990       1.05214127E-31
   2.03200006       9.37630248E-32
   2.03299999       1.85431369E-32
   2.03399992      -1.78903128E-31
   2.03500009      -5.15693321E-31
   2.03600001      -8.64586627E-31
   2.03699994      -9.13404626E-31
   2.03800011      -3.01951467E-31
   2.03900003       1.06738037E-30
   2.03999996       2.74997593E-30
   2.04099989       3.81844011E-30
   2.04200006       3.39751759E-30
   2.04299998       1.39584124E-30
   2.04399991      -1.17519653E-30
   2.04500008      -2.74420586E-30
   2.04600000      -2.32893398E-30
   2.04699993      -3.45567644E-31
   2.04800010       1.74554516E-30
   2.04900002       2.65329312E-30
   2.04999995       1.83804641E-30
   2.05100012      -1.78987221E-30
   2.05200005      -1.21833102E-29
   2.05299997      -3.62377201E-29
   2.05399990      -7.86148293E-29
   2.05500007      -1.32381623E-28
   2.05599999      -1.71959676E-28
   2.05699992      -1.56499960E-28
   2.05800009      -4.65238982E-29
   2.05900002       1.72705854E-28
   2.05999994       4.73865578E-28
   2.06100011       7.86629475E-28
   2.06200004       1.01359757E-27
   2.06299996       1.05389101E-27
   2.06399989       8.23402362E-28
   2.06500006       2.68210132E-28
   2.06599998      -6.22064105E-28
   2.06699991      -1.79111446E-27
   2.06800008      -3.08269008E-27
   2.06900001      -4.21457875E-27
   2.06999993      -4.79048496E-27
   2.07100010      -4.37557224E-27
   2.07200003      -2.63294422E-27
   2.07299995       5.23312962E-28
   2.07399988       4.83104889E-27
   2.07500005       9.69627149E-27
   2.07599998       1.43138441E-26
   2.07699990       1.78008805E-26
   2.07800007       1.92200875E-26
   2.07900000       1.74494661E-26
   2.07999992       1.10317175E-26
   2.08100009      -1.69880483E-27
   2.08200002      -2.19216819E-26
   2.08299994      -4.90563693E-26
   2.08400011      -7.93687440E-26
   2.08500004      -1.05324505E-25
   2.08599997      -1.16571073E-25
   2.08699989      -1.02876867E-25
   2.08800006      -5.83732911E-26
   2.08899999       1.45147649E-26
   2.08999991       1.03441395E-25
   2.09100008       1.88244731E-25
   2.09200001       2.46802801E-25
   2.09299994       2.62942944E-25
   2.09400010       2.33464568E-25
   2.09500003       1.71209268E-25
   2.09599996       1.02301664E-25
   2.09699988       5.78233688E-26
   2.09800005       6.24487438E-26
   2.09899998       1.24022813E-25
   2.09999990       2.28000030E-25
   2.10100007       3.38975922E-25
   2.10200000       4.08821913E-25
   2.10299993       3.88308695E-25
   2.10400009       2.37822877E-25
   2.10500002      -6.63816098E-26
   2.10599995      -5.31166031E-25
   2.10700011      -1.14799762E-24
   2.10800004      -1.89193635E-24
   2.10899997      -2.71375626E-24
   2.10999990      -3.52496776E-24
   2.11100006      -4.18180017E-24
   2.11199999      -4.47969141E-24
   2.11299992      -4.17090995E-24
   2.11400008      -3.01242610E-24
   2.11500001      -8.39719458E-25
   2.11599994       2.35087650E-24
   2.11700010       6.33722455E-24
   2.11800003       1.06486645E-23
   2.11899996       1.45988776E-23
   2.11999989       1.73706903E-23
   2.12100005       1.81353174E-23
   2.12199998       1.61850229E-23
   2.12299991       1.10656193E-23
   2.12400007       2.70606901E-24
   2.12500000      -8.45578979E-24
   2.12599993      -2.13673862E-23
   2.12700009      -3.43192328E-23
   2.12800002      -4.50322005E-23
   2.12899995      -5.09324509E-23
   2.13000011      -4.96211874E-23
   2.13100004      -3.94615141E-23
   2.13199997      -2.01222955E-23
   2.13299990       7.11303256E-24
   2.13400006       3.94121976E-23
   2.13499999       7.28395537E-23
   2.13599992       1.03020817E-22
   2.13700008       1.25748922E-22
   2.13800001       1.37258440E-22
   2.13899994       1.34056536E-22
   2.14000010       1.12474021E-22
   2.14100003       6.83873742E-23
   2.14199996      -2.28025431E-24
   2.14299989      -1.01763391E-22
   2.14400005      -2.27240232E-22
   2.14499998      -3.66707306E-22
   2.14599991      -4.95145448E-22
   2.14700007      -5.72689995E-22
   2.14800000      -5.46590538E-22
   2.14899993      -3.58206793E-22
   2.15000010       4.48635263E-23
   2.15100002       6.93004687E-22
   2.15199995       1.57825334E-21
   2.15300012       2.64173356E-21
   2.15400004       3.76954364E-21
   2.15499997       4.80104796E-21
   2.15599990       5.55163884E-21
   2.15700006       5.84921868E-21
   2.15799999       5.58027148E-21
   2.15899992       4.73800735E-21
   2.16000009       3.46219030E-21
   2.16100001       2.05850338E-21
   2.16199994       9.85267833E-22
   2.16300011       7.97557459E-22
   2.16400003       2.04376397E-21
   2.16499996       5.11759520E-21
   2.16599989       1.00790124E-20
   2.16700006       1.64695424E-20
   2.16799998       2.31586968E-20
   2.16899991       2.82660185E-20
   2.17000008       2.92044904E-20
   2.17100000       2.28828579E-20
   2.17199993       6.08537915E-21
   2.17300010      -2.39814943E-20
   2.17400002      -6.90221992E-20
   2.17499995      -1.28948514E-19
   2.17600012      -2.01253676E-19
   2.17700005      -2.80594372E-19
   2.17799997      -3.58705425E-19
   2.17899990      -4.24742019E-19
   2.18000007      -4.66090167E-19
   2.18099999      -4.69615508E-19
   2.18199992      -4.23242005E-19
   2.18300009      -3.17684013E-19
   2.18400002      -1.48105267E-19
   2.18499994       8.45331023E-20
   2.18600011       3.72650217E-19
   2.18700004       7.01899508E-19
   2.18799996       1.05175891E-18
   2.18899989       1.39681420E-18
   2.19000006       1.70859543E-18
   2.19099998       1.95775577E-18
   2.19199991       2.11634966E-18
   2.19300008       2.15997496E-18
   2.19400001       2.06960196E-18
   2.19499993       1.83297888E-18
   2.19600010       1.44559542E-18
   2.19700003       9.11252458E-19
   2.19799995       2.42318864E-19
   2.19899988      -5.40239826E-19
   2.20000005      -1.40702264E-18
   2.20099998      -2.32057518E-18
   2.20199990      -3.23609434E-18
   2.20300007      -4.10261111E-18
   2.20400000      -4.86481420E-18
   2.20499992      -5.46563602E-18
   2.20600009      -5.84961160E-18
   2.20700002      -5.96688389E-18
   2.20799994      -5.77756541E-18
   2.20900011      -5.25601397E-18
   2.21000004      -4.39450123E-18
   2.21099997      -3.20572812E-18
   2.21199989      -1.72372115E-18
   2.21300006      -2.83951737E-21
   2.21399999       1.88515744E-18
   2.21499991       3.85572996E-18
   2.21600008       5.81735652E-18
   2.21700001       7.67778788E-18
   2.21799994       9.34997071E-18
   2.21900010       1.07568478E-17
   2.22000003       1.18344871E-17
   2.22099996       1.25332281E-17
   2.22199988       1.28169303E-17
   2.22300005       1.26607264E-17
   2.22399998       1.20480014E-17
   2.22499990       1.09674322E-17
   2.22600007       9.41091407E-18
   2.22700000       7.37301483E-18
   2.22799993       4.85227704E-18
   2.22900009       1.85429512E-18
   2.23000002      -1.60386785E-18
   2.23099995      -5.48865356E-18
   2.23200011      -9.74520422E-18
   2.23300004      -1.42935801E-17
   2.23399997      -1.90265620E-17
   2.23499990      -2.38093269E-17
   2.23600006      -2.84809038E-17
   2.23699999      -3.28571260E-17
   2.23799992      -3.67345649E-17
   2.23900008      -3.98950897E-17
   2.24000001      -4.21108319E-17
   2.24099994      -4.31496153E-17
   2.24200010      -4.27812949E-17
   2.24300003      -4.07856158E-17
   2.24399996      -3.69623109E-17
   2.24499989      -3.11440184E-17
   2.24600005      -2.32120958E-17
   2.24699998      -1.31150239E-17
   2.24799991      -8.88201313E-19
   2.24900007       1.33265580E-17
   2.25000000       2.92641876E-17
   2.25099993       4.65247405E-17
   2.25200009       6.45696127E-17
   2.25300002       8.27277426E-17
   2.25399995       1.00213189E-16
   2.25500011       1.16154700E-16
   2.25600004       1.29636182E-16
   2.25699997       1.39746248E-16
   2.25799990       1.45633260E-16
   2.25900006       1.46561806E-16
   2.25999999       1.41965753E-16
   2.26099992       1.31493024E-16
   2.26200008       1.15037808E-16
   2.26300001       9.27574001E-17
   2.26399994       6.50720621E-17
   2.26500010       3.26484846E-17
   2.26600003      -3.63059993E-18
   2.26699996      -4.27066700E-17
   2.26799989      -8.33906782E-17
   2.26900005      -1.24408321E-16
   2.26999998      -1.64441110E-16
   2.27099991      -2.02161009E-16
   2.27200007      -2.36258082E-16
   2.27300000      -2.65462905E-16
   2.27399993      -2.88567555E-16
   2.27500010      -3.04448523E-16
   2.27600002      -3.12096595E-16
   2.27699995      -3.10654866E-16
   2.27800012      -2.99465481E-16
   2.27900004      -2.78121918E-16
   2.27999997      -2.46521634E-16
   2.28099990      -2.04911431E-16
   2.28200006      -1.53917546E-16
   2.28299999      -9.45538445E-17
   2.28399992      -2.82028520E-17
   2.28500009       4.34311809E-17
   2.28600001       1.18394652E-16
   2.28699994       1.94575393E-16
   2.28800011       2.69801884E-16
   2.28900003       3.41939128E-16
   2.28999996       4.08968789E-16
   2.29099989       4.69044547E-16
   2.29200006       5.20515404E-16
   2.29299998       5.61916946E-16
   2.29399991       5.91935211E-16
   2.29500008       6.09352749E-16
   2.29600000       6.12993562E-16
   2.29699993       6.01681913E-16
   2.29800010       5.74233069E-16
   2.29900002       5.29486542E-16
   2.29999995       4.66389205E-16
   2.30100012       3.84123565E-16
   2.30200005       2.82268224E-16
   2.30299997       1.60969083E-16
   2.30399990       2.10932479E-17
   2.30500007      -1.35663100E-16
   2.30599999      -3.06736465E-16
   2.30699992      -4.88740816E-16
   2.30800009      -6.77592265E-16
   2.30900002      -8.68693803E-16
   2.30999994      -1.05714127E-15
   2.31100011      -1.23790107E-15
   2.31200004      -1.40590899E-15
   2.31299996      -1.55604653E-15
   2.31399989      -1.68297717E-15
   2.31500006      -1.78085882E-15
   2.31599998      -1.84299080E-15
   2.31699991      -1.86149678E-15
   2.31800008      -1.82717649E-15
   2.31900001      -1.72967230E-15
   2.31999993      -1.55808323E-15
   2.32100010      -1.30211188E-15
   2.32200003      -9.53751475E-16
   2.32299995      -5.09411967E-16
   2.32399988       2.77292001E-17
   2.32500005       6.45487440E-16
   2.32599998       1.32096165E-15
   2.32699990       2.01981740E-15
   2.32800007       2.69699864E-15
   2.32900000       3.29919841E-15
   2.32999992       3.76922970E-15
   2.33100009       4.05219291E-15
   2.33200002       4.10301659E-15
   2.33299994       3.89466173E-15
   2.33400011       3.42597849E-15
   2.33500004       2.72803160E-15
   2.33599997       1.86763226E-15
   2.33699989       9.46910308E-16
   2.33800006       9.80372609E-17
   2.33899999      -5.27344925E-16
   2.33999991      -7.73838342E-16
   2.34100008      -5.02300596E-16
   2.34200001       3.87412806E-16
   2.34299994       1.93320045E-15
   2.34400010       4.08970419E-15
   2.34500003       6.71255781E-15
   2.34599996       9.55090634E-15
   2.34699988       1.22508349E-14
   2.34800005       1.43716538E-14
   2.34899998       1.54159285E-14
   2.34999990       1.48728906E-14
   2.35100007       1.22733660E-14
   2.35200000       7.25301777E-15
   2.35299993      -3.80755021E-16
   2.35400009      -1.05838114E-14
   2.35500002      -2.30183694E-14
   2.35599995      -3.70104270E-14
   2.35700011      -5.15271250E-14
   2.35800004      -6.51784806E-14
   2.35899997      -7.62460705E-14
   2.35999990      -8.27390592E-14
   2.36100006      -8.24753067E-14
   2.36199999      -7.31828335E-14
   2.36299992      -5.26143968E-14
   2.36400008      -1.86661735E-14
   2.36500001       3.05096118E-14
   2.36599994       9.64085379E-14
   2.36700010       1.80103830E-13
   2.36800003       2.82209857E-13
   2.36899996       4.02883998E-13
   2.36999989       5.41867983E-13
   2.37100005       6.98566259E-13
   2.37199998       8.72153966E-13
   2.37299991       1.06170444E-12
   2.37400007       1.26632385E-12
   2.37500000       1.48527740E-12
   2.37599993       1.71809409E-12
   2.37700009       1.96463657E-12
   2.37800002       2.22512698E-12
   2.37899995       2.50012511E-12
   2.38000011       2.79045688E-12
   2.38100004       3.09710070E-12
   2.38199997       3.42104340E-12
   2.38299990       3.76311829E-12
   2.38400006       4.12384406E-12
   2.38499999       4.50328273E-12
   2.38599992       4.90093599E-12
   2.38700008       5.31568452E-12
   2.38800001       5.74578926E-12
   2.38899994       6.18894823E-12
   2.39000010       6.64241015E-12
   2.39100003       7.10313058E-12
   2.39199996       7.56795061E-12
   2.39299989       8.03378891E-12
   2.39400005       8.49781703E-12
   2.39499998       8.95760029E-12
   2.39599991       9.41119231E-12
   2.39700007       9.85716890E-12
   2.39800000       1.02945994E-11
   2.39899993       1.07229581E-11
   2.40000010       1.11419901E-11
   2.40100002       1.15515375E-11
   2.40199995       1.19513609E-11
   2.40300012       1.23409668E-11
   2.40400004       1.27194592E-11
   2.40499997       1.30854459E-11
   2.40599990       1.34369980E-11
   2.40700006       1.37716626E-11
   2.40799999       1.40865505E-11
   2.40899992       1.43784446E-11
   2.41000009       1.46439614E-11
   2.41100001       1.48796982E-11
   2.41199994       1.50823919E-11
   2.41300011       1.52490191E-11
   2.41400003       1.53768751E-11
   2.41499996       1.54635714E-11
   2.41599989       1.55069967E-11
   2.41700006       1.55052100E-11
   2.41799998       1.54563133E-11
   2.41899991       1.53582945E-11
   2.42000008       1.52088776E-11
   2.42100000       1.50054032E-11
   2.42199993       1.47447488E-11
   2.42300010       1.44233020E-11
   2.42400002       1.40370042E-11
   2.42499995       1.35814459E-11
   2.42600012       1.30520065E-11
   2.42700005       1.24440258E-11
   2.42799997       1.17529753E-11
   2.42899990       1.09746084E-11
   2.43000007       1.01050722E-11
   2.43099999       9.14095535E-12
   2.43199992       8.07927076E-12
   2.43300009       6.91737119E-12
   2.43400002       5.65279724E-12
   2.43499994       4.28309775E-12
   2.43600011       2.80562639E-12
   2.43700004       1.21735586E-12
   2.43799996      -4.85271166E-13
   2.43899989      -2.30642263E-12
   2.44000006      -4.25088220E-12
   2.44099998      -6.32396696E-12
   2.44199991      -8.53136919E-12
   2.44300008      -1.08789366E-11
   2.44400001      -1.33724195E-11
   2.44499993      -1.60172101E-11
   2.44600010      -1.88181311E-11
   2.44700003      -2.17792642E-11
   2.44799995      -2.49038880E-11
   2.44899988      -2.81945110E-11
   2.45000005      -3.16529997E-11
   2.45099998      -3.52808095E-11
   2.45199990      -3.90792815E-11
   2.45300007      -4.30499456E-11
   2.45400000      -4.71948279E-11
   2.45499992      -5.15167527E-11
   2.45600009      -5.60194495E-11
   2.45700002      -6.07076611E-11
   2.45799994      -6.55870566E-11
   2.45900011      -7.06640857E-11
   2.46000004      -7.59456317E-11
   2.46099997      -8.14387169E-11
   2.46199989      -8.71501343E-11
   2.46300006      -9.30861083E-11
   2.46399999      -9.92520233E-11
   2.46499991      -1.05652258E-10
   2.46600008      -1.12290205E-10
   2.46700001      -1.19168383E-10
   2.46799994      -1.26288702E-10
   2.46900010      -1.33652797E-10
   2.47000003      -1.41262488E-10
   2.47099996      -1.49120105E-10
   2.47199988      -1.57228952E-10
   2.47300005      -1.65593497E-10
   2.47399998      -1.74219528E-10
   2.47499990      -1.83114093E-10
   2.47600007      -1.92285327E-10
   2.47700000      -2.01742123E-10
   2.47799993      -2.11493781E-10
   2.47900009      -2.21549432E-10
   2.48000002      -2.31917804E-10
   2.48099995      -2.42606685E-10
   2.48200011      -2.53622789E-10
   2.48300004      -2.64971767E-10
   2.48399997      -2.76658141E-10
   2.48499990      -2.88685631E-10
   2.48600006      -3.01057484E-10
   2.48699999      -3.13776921E-10
   2.48799992      -3.26847549E-10
   2.48900008      -3.40273754E-10
   2.49000001      -3.54060864E-10
   2.49099994      -3.68215375E-10
   2.49200010      -3.82744891E-10
   2.49300003      -3.97657879E-10
   2.49399996      -4.12963386E-10
   2.49499989      -4.28670655E-10
   2.49600005      -4.44788734E-10
   2.49699998      -4.61326033E-10
   2.49799991      -4.78290130E-10
   2.49900007      -4.95687491E-10
   2.50000000      -5.13523724E-10
   2.50099993      -5.31803601E-10
   2.50200009      -5.50531509E-10
   2.50300002      -5.69711889E-10
   2.50399995      -5.89349569E-10
   2.50500011      -6.09450268E-10
   2.50600004      -6.30020980E-10
   2.50699997      -6.51070087E-10
   2.50799990      -6.72607414E-10
   2.50900006      -6.94644120E-10
   2.50999999      -7.17192250E-10
   2.51099992      -7.40264350E-10
   2.51200008      -7.63872909E-10
   2.51300001      -7.88029697E-10
   2.51399994      -8.12745649E-10
   2.51500010      -8.38030312E-10
   2.51600003      -8.63892069E-10
   2.51699996      -8.90338026E-10
   2.51799989      -9.17374565E-10
   2.51900005      -9.45007628E-10
   2.51999998      -9.73243597E-10
   2.52099991      -1.00209008E-09
   2.52200007      -1.03155573E-09
   2.52300000      -1.06165154E-09
   2.52399993      -1.09239073E-09
   2.52500010      -1.12378806E-09
   2.52600002      -1.15586074E-09
   2.52699995      -1.18862675E-09
   2.52800012      -1.22210464E-09
   2.52900004      -1.25631339E-09
   2.52999997      -1.29127065E-09
   2.53099990      -1.32699285E-09
   2.53200006      -1.36349476E-09
   2.53299999      -1.40078971E-09
   2.53399992      -1.43888901E-09
   2.53500009      -1.47780355E-09
   2.53600001      -1.51754398E-09
   2.53699994      -1.55812119E-09
   2.53800011      -1.59954794E-09
   2.53900003      -1.64183855E-09
   2.53999996      -1.68501002E-09
   2.54099989      -1.72908188E-09
   2.54200006      -1.77407633E-09
   2.54299998      -1.82001791E-09
   2.54399991      -1.86693216E-09
   2.54500008      -1.91484584E-09
   2.54600000      -1.96378491E-09
   2.54699993      -2.01377470E-09
   2.54800010      -2.06483919E-09
   2.54900002      -2.11699991E-09
   2.54999995      -2.17027663E-09
   2.55100012      -2.22468821E-09
   2.55200005      -2.28025177E-09
   2.55299997      -2.33698416E-09
   2.55399990      -2.39490316E-09
   2.55500007      -2.45402765E-09
   2.55599999      -2.51437915E-09
   2.55699992      -2.57598121E-09
   2.55800009      -2.63886113E-09
   2.55900002      -2.70304867E-09
   2.55999994      -2.76857470E-09
   2.56100011      -2.83547275E-09
   2.56200004      -2.90377522E-09
   2.56299996      -2.97351499E-09
   2.56399989      -3.04472336E-09
   2.56500006      -3.11742920E-09
   2.56599998      -3.19165849E-09
   2.56699991      -3.26743588E-09
   2.56800008      -3.34478312E-09
   2.56900001      -3.42372131E-09
   2.56999993      -3.50427065E-09
   2.57100010      -3.58645269E-09
   2.57200003      -3.67028985E-09
   2.57299995      -3.75580766E-09
   2.57399988      -3.84303434E-09
   2.57500005      -3.93200050E-09
   2.57599998      -4.02274036E-09
   2.57699990      -4.11528811E-09
   2.57800007      -4.20968149E-09
   2.57900000      -4.30595692E-09
   2.57999992      -4.40415127E-09
   2.58100009      -4.50429960E-09
   2.58200002      -4.60643479E-09
   2.58299994      -4.71058925E-09
   2.58400011      -4.81679274E-09
   2.58500004      -4.92507590E-09
   2.58599997      -5.03546671E-09
   2.58699989      -5.14799625E-09
   2.58800006      -5.26269650E-09
   2.58899999      -5.37960254E-09
   2.58999991      -5.49875212E-09
   2.59100008      -5.62018831E-09
   2.59200001      -5.74395553E-09
   2.59299994      -5.87010174E-09
   2.59400010      -5.99867755E-09
   2.59500003      -6.12973583E-09
   2.59599996      -6.26332852E-09
   2.59699988      -6.39950759E-09
   2.59800005      -6.53832410E-09
   2.59899998      -6.67982913E-09
   2.59999990      -6.82407153E-09
   2.60100007      -6.97109881E-09
   2.60200000      -7.12095849E-09
   2.60299993      -7.27370164E-09
   2.60400009      -7.42937711E-09
   2.60500002      -7.58804042E-09
   2.60599995      -7.74974840E-09
   2.60700011      -7.91456056E-09
   2.60800004      -8.08254352E-09
   2.60899997      -8.25376478E-09
   2.60999990      -8.42829628E-09
   2.61100006      -8.60621086E-09
   2.61199999      -8.78758488E-09
   2.61299992      -8.97249297E-09
   2.61400008      -9.16101062E-09
   2.61500001      -9.35321509E-09
   2.61599994      -9.54917923E-09
   2.61700010      -9.74897763E-09
   2.61800003      -9.95268401E-09
   2.61899996      -1.01603739E-08
   2.61999989      -1.03721201E-08
   2.62100005      -1.05880016E-08
   2.62199998      -1.08080993E-08
   2.62299991      -1.10324976E-08
   2.62400007      -1.12612817E-08
   2.62500000      -1.14945449E-08
   2.62599993      -1.17323804E-08
   2.62700009      -1.19748860E-08
   2.62800002      -1.22221611E-08
   2.62899995      -1.24743051E-08
   2.63000011      -1.27314213E-08
   2.63100004      -1.29936115E-08
   2.63199997      -1.32609790E-08
   2.63299990      -1.35336258E-08
   2.63400006      -1.38116567E-08
   2.63499999      -1.40951748E-08
   2.63599992      -1.43842813E-08
   2.63700008      -1.46790819E-08
   2.63800001      -1.49796779E-08
   2.63899994      -1.52861759E-08
   2.64000010      -1.55986779E-08
   2.64100003      -1.59172906E-08
   2.64199996      -1.62421152E-08
   2.64299989      -1.65732565E-08
   2.64400005      -1.69108123E-08
   2.64499998      -1.72548820E-08
   2.64599991      -1.76055615E-08
   2.64700007      -1.79629396E-08
   2.64800000      -1.83271069E-08
   2.64899993      -1.86981453E-08
   2.65000010      -1.90761309E-08
   2.65100002      -1.94611403E-08
   2.65199995      -1.98532373E-08
   2.65300012      -2.02524895E-08
   2.65400004      -2.06589590E-08
   2.65499997      -2.10726991E-08
   2.65599990      -2.14937632E-08
   2.65700006      -2.19221992E-08
   2.65799999      -2.23580603E-08
   2.65899992      -2.28013910E-08
   2.66000009      -2.32522357E-08
   2.66100001      -2.37106370E-08
   2.66199994      -2.41766429E-08
   2.66300011      -2.46502996E-08
   2.66400003      -2.51316532E-08
   2.66499996      -2.56207624E-08
   2.66599989      -2.61176805E-08
   2.66700006      -2.66224731E-08
   2.66799998      -2.71352079E-08
   2.66899991      -2.76559646E-08
   2.67000008      -2.81848358E-08
   2.67100000      -2.87219208E-08
   2.67199993      -2.92673352E-08
   2.67300010      -2.98212122E-08
   2.67400002      -3.03836920E-08
   2.67499995      -3.09549542E-08
   2.67600012      -3.15351762E-08
   2.67700005      -3.21245679E-08
   2.67799997      -3.27233636E-08
   2.67899990      -3.33318084E-08
   2.68000007      -3.39501867E-08
   2.68099999      -3.45787896E-08
   2.68199992      -3.52179406E-08
   2.68300009      -3.58679770E-08
   2.68400002      -3.65292507E-08
   2.68499994      -3.72021276E-08
   2.68600011      -3.78869878E-08
   2.68700004      -3.85842291E-08
   2.68799996      -3.92942425E-08
   2.68899989      -4.00174471E-08
   2.69000006      -4.07542551E-08
   2.69099998      -4.15050891E-08
   2.69199991      -4.22703685E-08
   2.69300008      -4.30505160E-08
   2.69400001      -4.38459544E-08
   2.69499993      -4.46570958E-08
   2.69600010      -4.54843629E-08
   2.69700003      -4.63281609E-08
   2.69799995      -4.71888981E-08
   2.69899988      -4.80669620E-08
   2.70000005      -4.89627325E-08
   2.70099998      -4.98765971E-08
   2.70199990      -5.08089180E-08
   2.70300007      -5.17600469E-08
   2.70400000      -5.27303392E-08
   2.70499992      -5.37201394E-08
   2.70600009      -5.47297958E-08
   2.70700002      -5.57596458E-08
   2.70799994      -5.68100482E-08
   2.70900011      -5.78813619E-08
   2.71000004      -5.89739670E-08
   2.71099997      -6.00882544E-08
   2.71199989      -6.12246396E-08
   2.71300006      -6.23835419E-08
   2.71399999      -6.35653947E-08
   2.71499991      -6.47706813E-08
   2.71600008      -6.59998562E-08
   2.71700001      -6.72534171E-08
   2.71799994      -6.85318611E-08
   2.71900010      -6.98356999E-08
   2.72000003      -7.11654664E-08
   2.72099996      -7.25216864E-08
   2.72199988      -7.39049071E-08
   2.72300005      -7.53156826E-08
   2.72399998      -7.67545814E-08
   2.72499990      -7.82221576E-08
   2.72600007      -7.97190083E-08
   2.72700000      -8.12457017E-08
   2.72799993      -8.28028419E-08
   2.72900009      -8.43910257E-08
   2.73000002      -8.60108500E-08
   2.73099995      -8.76629116E-08
   2.73200011      -8.93478287E-08
   2.73300004      -9.10661839E-08
   2.73399997      -9.28185813E-08
   2.73499990      -9.46056176E-08
   2.73600006      -9.64278684E-08
   2.73699999      -9.82859376E-08
   2.73799992      -1.00180415E-07
   2.73900008      -1.02111912E-07
   2.74000001      -1.04081025E-07
   2.74099994      -1.06088386E-07
   2.74200010      -1.08134621E-07
   2.74300003      -1.10220370E-07
   2.74399996      -1.12346306E-07
   2.74499989      -1.14513064E-07
   2.74600005      -1.16721324E-07
   2.74699998      -1.18971748E-07
   2.74799991      -1.21264975E-07
   2.74900007      -1.23601652E-07
   2.75000000      -1.25982424E-07
   2.75099993      -1.28407919E-07
   2.75200009      -1.30878718E-07
   2.75300002      -1.33395389E-07
   2.75399995      -1.35958501E-07
   2.75500011      -1.38568581E-07
   2.75600004      -1.41226209E-07
   2.75699997      -1.43931857E-07
   2.75799990      -1.46686077E-07
   2.75900006      -1.49489352E-07
   2.75999999      -1.52342196E-07
   2.76099992      -1.55245104E-07
   2.76200008      -1.58198588E-07
   2.76300001      -1.61203118E-07
   2.76399994      -1.64259205E-07
   2.76500010      -1.67367318E-07
   2.76600003      -1.70527954E-07
   2.76699996      -1.73741583E-07
   2.76799989      -1.77008644E-07
   2.76900005      -1.80329621E-07
   2.76999998      -1.83704955E-07
   2.77099991      -1.87135086E-07
   2.77200007      -1.90620497E-07
   2.77300000      -1.94161615E-07
   2.77399993      -1.97758936E-07
   2.77500010      -2.01412888E-07
   2.77600002      -2.05123968E-07
   2.77699995      -2.08892644E-07
   2.77800012      -2.12719328E-07
   2.77900004      -2.16604477E-07
   2.77999997      -2.20548529E-07
   2.78099990      -2.24551869E-07
   2.78200006      -2.28614880E-07
   2.78299999      -2.32737946E-07
   2.78399992      -2.36921423E-07
   2.78500009      -2.41165623E-07
   2.78600001      -2.45470943E-07
   2.78699994      -2.49837655E-07
   2.78800011      -2.54266155E-07
   2.78900003      -2.58756785E-07
   2.78999996      -2.63309914E-07
   2.79099989      -2.67925913E-07
   2.79200006      -2.72605206E-07
   2.79299998      -2.77348249E-07
   2.79399991      -2.82155469E-07
   2.79500008      -2.87027405E-07
   2.79600000      -2.91964454E-07
   2.79699993      -2.96967187E-07
   2.79800010      -3.02036142E-07
   2.79900002      -3.07171831E-07
   2.79999995      -3.12374823E-07
   2.80100012      -3.17645657E-07
   2.80200005      -3.22984988E-07
   2.80299997      -3.28393355E-07
   2.80399990      -3.33871384E-07
   2.80500007      -3.39419756E-07
   2.80599999      -3.45039069E-07
   2.80699992      -3.50730062E-07
   2.80800009      -3.56493501E-07
   2.80900002      -3.62330070E-07
   2.80999994      -3.68240592E-07
   2.81100011      -3.74225749E-07
   2.81200004      -3.80286423E-07
   2.81299996      -3.86423409E-07
   2.81399989      -3.92637446E-07
   2.81500006      -3.98929444E-07
   2.81599998      -4.05300284E-07
   2.81699991      -4.11750818E-07
   2.81800008      -4.18281900E-07
   2.81900001      -4.24894523E-07
   2.81999993      -4.31589569E-07
   2.82100010      -4.38368033E-07
   2.82200003      -4.45230881E-07
   2.82299995      -4.52179080E-07
   2.82399988      -4.59213624E-07
   2.82500005      -4.66335507E-07
   2.82599998      -4.73545754E-07
   2.82699990      -4.80845358E-07
   2.82800007      -4.88235344E-07
   2.82900000      -4.95716563E-07
   2.82999992      -5.03290096E-07
   2.83100009      -5.10956966E-07
   2.83200002      -5.18718082E-07
   2.83299994      -5.26574354E-07
   2.83400011      -5.34526919E-07
   2.83500004      -5.42576572E-07
   2.83599997      -5.50724280E-07
   2.83699989      -5.58971180E-07
   2.83800006      -5.67318125E-07
   2.83899999      -5.75766137E-07
   2.83999991      -5.84316354E-07
   2.84100008      -5.92969798E-07
   2.84200001      -6.01727550E-07
   2.84299994      -6.10590860E-07
   2.84400010      -6.19560979E-07
   2.84500003      -6.28639100E-07
   2.84599996      -6.37826645E-07
   2.84699988      -6.47124864E-07
   2.84800005      -6.56535065E-07
   2.84899998      -6.66058668E-07
   2.84999990      -6.75696924E-07
   2.85100007      -6.85451482E-07
   2.85200000      -6.95323649E-07
   2.85299993      -7.05314903E-07
   2.85400009      -7.15426779E-07
   2.85500002      -7.25660584E-07
   2.85599995      -7.36017796E-07