   2.00000000       0.00000000    
   2.00099993       0.00000000    
   2.00200009       0.00000000    
   2.00300002       0.00000000    
   2.00399995       0.00000000    
   2.00500011      -8.41222896E-28
   2.00600004      -8.77816374E-27
   2.00699997      -4.55098448E-26
   2.00799990      -1.59955021E-25
   2.00900006      -4.30987598E-25
   2.00999999      -9.38801670E-25
   2.01099992      -1.67499507E-24
   2.01200008      -2.38215503E-24
   2.01300001      -2.35669809E-24
   2.01399994      -2.74309123E-25
   2.01500010       5.88984614E-24
   2.01600003       1.87143886E-23
   2.01699996       4.07139254E-23
   2.01799989       7.29385589E-23
   2.01900005       1.12594268E-22
   2.01999998       1.49883635E-22
   2.02099991       1.64937689E-22
   2.02200007       1.26449834E-22
   2.02300000      -5.96451065E-24
   2.02399993      -2.73935244E-22
   2.02500010      -7.06249321E-22
   2.02600002      -1.29900001E-21
   2.02699995      -1.99174509E-21
   2.02800012      -2.64296121E-21
   2.02900004      -3.01054605E-21
   2.02999997      -2.74697250E-21
   2.03099990      -1.42286506E-21
   2.03200006       1.40592795E-21
   2.03299999       6.07849351E-21
   2.03399992       1.26622449E-20
   2.03500009       2.07682175E-20
   2.03600001       2.93996695E-20
   2.03699994       3.68979519E-20
   2.03800011       4.10429442E-20
   2.03900003       3.93365320E-20
   2.03999996       2.94513844E-20
   2.04099989       9.77584181E-21
   2.04200006      -2.00555853E-20
   2.04299998      -5.87743361E-20
   2.04399991      -1.03345244E-19
   2.04500008      -1.49152969E-19
   2.04600000      -1.90496050E-19
   2.04699993      -2.21292605E-19
   2.04800010      -2.35830485E-19
   2.04900002      -2.29360537E-19
   2.04999995      -1.98358260E-19
   2.05100012      -1.40376712E-19
   2.05200005      -5.35753800E-20
   2.05299997       6.38009512E-20
   2.05399990       2.13566492E-19
   2.05500007       3.96895578E-19
   2.05599999       6.12451712E-19
   2.05699992       8.53347799E-19
   2.05800009       1.10341975E-18
   2.05900002       1.33380103E-18
   2.05999994       1.50115486E-18
   2.06100011       1.54899610E-18
   2.06200004       1.41320075E-18
   2.06299996       1.03205671E-18
   2.06399989       3.60139498E-19
   2.06500006      -6.15881564E-19
   2.06599998      -1.86243313E-18
   2.06699991      -3.28874542E-18
   2.06800008      -4.74454545E-18
   2.06900001      -6.02836161E-18
   2.06999993      -6.90750488E-18
   2.07100010      -7.14866939E-18
   2.07200003      -6.55578851E-18
   2.07299995      -5.00974245E-18
   2.07399988      -2.50311967E-18
   2.07500005       8.36999660E-19
   2.07599998       4.74427869E-18
   2.07699990       8.83008769E-18
   2.07800007       1.26225785E-17
   2.07900000       1.56243946E-17
   2.07999992       1.73817927E-17
   2.08100009       1.75550589E-17
   2.08200002       1.59787339E-17
   2.08299994       1.27006784E-17
   2.08400011       7.99164750E-18
   2.08500004       2.32144889E-18
   2.08599997      -3.69677645E-18
   2.08699989      -9.38701516E-18
   2.08800006      -1.41038877E-17
   2.08899999      -1.73248446E-17
   2.08999991      -1.87266312E-17
   2.09100008      -1.82338830E-17
   2.09200001      -1.60321218E-17
   2.09299994      -1.25428779E-17
   2.09400010      -8.36417408E-18
   2.09500003      -4.18452639E-18
   2.09599996      -6.82081191E-19
   2.09699988       1.57746362E-18
   2.09800005       2.23015193E-18
   2.09899998       1.17746203E-18
   2.09999990      -1.38565574E-18
   2.10100007      -4.98430665E-18
   2.10200000      -8.91917339E-18
   2.10299993      -1.23584183E-17
   2.10400009      -1.44543625E-17
   2.10500002      -1.44686892E-17
   2.10599995      -1.18875970E-17
   2.10700011      -6.50926250E-18
   2.10800004       1.50976209E-18
   2.10899997       1.16556233E-17
   2.10999990       2.31039618E-17
   2.11100006       3.48030916E-17
   2.11199999       4.55793491E-17
   2.11299992       5.42490490E-17
   2.11400008       5.97240416E-17
   2.11500001       6.11028922E-17
   2.11599994       5.77453793E-17
   2.11700010       4.93319235E-17
   2.11800003       3.59101471E-17
   2.11899996       1.79282332E-17
   2.11999989      -3.75040422E-18
   2.12100005      -2.78611007E-17
   2.12199998      -5.27922780E-17
   2.12299991      -7.66887550E-17
   2.12400007      -9.76044535E-17
   2.12500000      -1.13693355E-16
   2.12599993      -1.23415599E-16
   2.12700009      -1.25726940E-16
   2.12800002      -1.20217983E-16
   2.12899995      -1.07174549E-16
   2.13000011      -8.75439852E-17
   2.13100004      -6.28086114E-17
   2.13199997      -3.47853767E-17
   2.13299990      -5.38461243E-18
   2.13400006       2.36318354E-17
   2.13499999       5.08534461E-17
   2.13599992       7.53532487E-17
   2.13700008       9.67312155E-17
   2.13800001       1.15066488E-16
   2.13899994       1.30791178E-16
   2.14000010       1.44510915E-16
   2.14100003       1.56804341E-16
   2.14199996       1.68036606E-16
   2.14299989       1.78218683E-16
   2.14400005       1.86937749E-16
   2.14499998       1.93372619E-16
   2.14599991       1.96395666E-16
   2.14700007       1.94747949E-16
   2.14800000       1.87261713E-16
   2.14899993       1.73093883E-16
   2.15000010       1.51929878E-16
   2.15100002       1.24119324E-16
   2.15199995       9.07150581E-17
   2.15300012       5.34033494E-17
   2.15400004       1.43320522E-17
   2.15499997      -2.41375968E-17
   2.15599990      -5.97167426E-17
   2.15700006      -9.04681679E-17
   2.15799999      -1.15038456E-16
   2.15899992      -1.32815335E-16
   2.16000009      -1.43997030E-16
   2.16100001      -1.49576648E-16
   2.16199994      -1.51254634E-16
   2.16300011      -1.51296840E-16
   2.16400003      -1.52352335E-16
   2.16499996      -1.57240470E-16
   2.16599989      -1.68710633E-16
   2.16700006      -1.89180150E-16
   2.16799998      -2.20461209E-16
   2.16899991      -2.63499377E-16
   2.17000008      -3.18160266E-16
   2.17100000      -3.83105882E-16
   2.17199993      -4.55800287E-16
   2.17300010      -5.32665457E-16
   2.17400002      -6.09384037E-16
   2.17499995      -6.81309786E-16
   2.17600012      -7.43923838E-16
   2.17700005      -7.93254349E-16
   2.17799997      -8.26185719E-16
   2.17899990      -8.40603438E-16
   2.18000007      -8.35357127E-16
   2.18099999      -8.10065730E-16
   2.18199992      -7.64823318E-16
   2.18300009      -6.99884531E-16
   2.18400002      -6.15408876E-16
   2.18499994      -5.11327797E-16
   2.18600011      -3.87366960E-16
   2.18700004      -2.43222864E-16
   2.18799996      -7.88639158E-17
   2.18899989       1.05097049E-16
   2.19000006       3.07016250E-16
   2.19099998       5.23875796E-16
   2.19199991       7.51025839E-16
   2.19300008       9.82041211E-16
   2.19400001       1.20870098E-15
   2.19499993       1.42108676E-15
   2.19600010       1.60777865E-15
   2.19700003       1.75611900E-15
   2.19799995       1.85250807E-15
   2.19899988       1.88269145E-15
   2.20000005       1.83200436E-15
   2.20099998       1.68555057E-15
   2.20199990       1.42831545E-15
   2.20300007       1.04522722E-15
   2.20400000       5.21199172E-16
   2.20499992      -1.58791242E-16
   2.20600009      -1.00955252E-15
   2.20700002      -2.04542511E-15
   2.20799994      -3.27991486E-15
   2.20900011      -4.72525334E-15
   2.21000004      -6.39192958E-15
   2.21099997      -8.28826228E-15
   2.21199989      -1.04200765E-14
   2.21300006      -1.27905448E-14
   2.21399999      -1.54001618E-14
   2.21499991      -1.82468634E-14
   2.21600008      -2.13262195E-14
   2.21700001      -2.46316334E-14
   2.21799994      -2.81544722E-14
   2.21900010      -3.18841260E-14
   2.22000003      -3.58079892E-14
   2.22099996      -3.99113793E-14
   2.22199988      -4.41774675E-14
   2.22300005      -4.85873006E-14
   2.22399998      -5.31199162E-14
   2.22499990      -5.77525563E-14
   2.22600007      -6.24610498E-14
   2.22700000      -6.72201484E-14
   2.22799993      -7.20040008E-14
   2.22900009      -7.67865114E-14
   2.23000002      -8.15417138E-14
   2.23099995      -8.62440951E-14
   2.23200011      -9.08689424E-14
   2.23300004      -9.53927014E-14
   2.23399997      -9.97933493E-14
   2.23499990      -1.04050788E-13
   2.23600006      -1.08147107E-13
   2.23699999      -1.12066897E-13
   2.23799992      -1.15797129E-13
   2.23900008      -1.19327047E-13
   2.24000001      -1.22647836E-13
   2.24099994      -1.25751948E-13
   2.24200010      -1.28632646E-13
   2.24300003      -1.31283331E-13
   2.24399996      -1.33697090E-13
   2.24499989      -1.35866565E-13
   2.24600005      -1.37783719E-13
   2.24699998      -1.39440177E-13
   2.24799991      -1.40827440E-13
   2.24900007      -1.41937501E-13
   2.25000000      -1.42763310E-13
   2.25099993      -1.43299340E-13
   2.25200009      -1.43541957E-13
   2.25300002      -1.43489753E-13
   2.25399995      -1.43143527E-13
   2.25500011      -1.42506056E-13
   2.25600004      -1.41581693E-13
   2.25699997      -1.40375626E-13
   2.25799990      -1.38893251E-13
   2.25900006      -1.37139378E-13
   2.25999999      -1.35117761E-13
   2.26099992      -1.32830934E-13
   2.26200008      -1.30280254E-13
   2.26300001      -1.27466329E-13
   2.26399994      -1.24389621E-13
   2.26500010      -1.21051037E-13
   2.26600003      -1.17452475E-13
   2.26699996      -1.13597093E-13
   2.26799989      -1.09489322E-13
   2.26900005      -1.05134617E-13
   2.26999998      -1.00539131E-13
   2.27099991      -9.57093969E-14
   2.27200007      -9.06521223E-14
   2.27300000      -8.53742532E-14
   2.27399993      -7.98831894E-14
   2.27500010      -7.41871638E-14
   2.27600002      -6.82955483E-14
   2.27699995      -6.22190288E-14
   2.27800012      -5.59695655E-14
   2.27900004      -4.95600604E-14
   2.27999997      -4.30038085E-14
   2.28099990      -3.63138949E-14
   2.28200006      -2.95026387E-14
   2.28299999      -2.25811631E-14
   2.28399992      -1.55591702E-14
   2.28500009      -8.44487867E-15
   2.28600001      -1.24506686E-15
   2.28699994       6.03489206E-15
   2.28800011       1.33910886E-14
   2.28900003       2.08212066E-14
   2.28999996       2.83247699E-14
   2.29099989       3.59033516E-14
   2.29200006       4.35607530E-14
   2.29299998       5.13030272E-14
   2.29399991       5.91383903E-14
   2.29500008       6.70770609E-14
   2.29600000       7.51311312E-14
   2.29699993       8.33145131E-14
   2.29800010       9.16430086E-14
   2.29900002       1.00134548E-13
   2.29999995       1.08809344E-13
   2.30100012       1.17689875E-13
   2.30200005       1.26800575E-13
   2.30299997       1.36167119E-13
   2.30399990       1.45815299E-13
   2.30500007       1.55769684E-13
   2.30599999       1.66052109E-13
   2.30699992       1.76680393E-13
   2.30800009       1.87667468E-13
   2.30900002       1.99020623E-13
   2.30999994       2.10741580E-13
   2.31100011       2.22826396E-13
   2.31200004       2.35265800E-13
   2.31299996       2.48045345E-13
   2.31399989       2.61145353E-13
   2.31500006       2.74540969E-13
   2.31599998       2.88201863E-13
   2.31699991       3.02092146E-13
   2.31800008       3.16170647E-13
   2.31900001       3.30391205E-13
   2.31999993       3.44703324E-13
   2.32100010       3.59053146E-13
   2.32200003       3.73384348E-13
   2.32299995       3.87639085E-13
   2.32399988       4.01759274E-13
   2.32500005       4.15687341E-13
   2.32599998       4.29367018E-13
   2.32699990       4.42744664E-13
   2.32800007       4.55769862E-13
   2.32900000       4.68396589E-13
   2.32999992       4.80583455E-13
   2.33100009       4.92294573E-13
   2.33200002       5.03498989E-13
   2.33299994       5.14170358E-13
   2.33400011       5.24285747E-13
   2.33500004       5.33824287E-13
   2.33599997       5.42766027E-13
   2.33699989       5.51090423E-13
   2.33800006       5.58775682E-13
   2.33899999       5.65797951E-13
   2.33999991       5.72132240E-13
   2.34100008       5.77752310E-13
   2.34200001       5.82633117E-13
   2.34299994       5.86752218E-13
   2.34400010       5.90092591E-13
   2.34500003       5.92645995E-13
   2.34599996       5.94416064E-13
   2.34699988       5.95421986E-13
   2.34800005       5.95700843E-13
   2.34899998       5.95309392E-13
   2.34999990       5.94323744E-13
   2.35100007       5.92836218E-13
   2.35200000       5.90950466E-13
   2.35299993       5.88772629E-13
   2.35400009       5.86400828E-13
   2.35500002       5.83912638E-13
   2.35599995       5.81351644E-13
   2.35700011       5.78714160E-13
   2.35800004       5.75937789E-13
   2.35899997       5.72891940E-13
   2.35999990       5.69372349E-13
   2.36100006       5.65099725E-13
   2.36199999       5.59722949E-13
   2.36299992       5.52826990E-13
   2.36400008       5.43946073E-13
   2.36500001       5.32580273E-13
   2.36599994       5.18216004E-13
   2.36700010       5.00347702E-13
   2.36800003       4.78500703E-13
   2.36899996       4.52252331E-13
   2.36999989       4.21249705E-13
   2.37100005       3.85223564E-13
   2.37199998       3.43996072E-13
   2.37299991       2.97482904E-13
   2.37400007       2.45689076E-13
   2.37500000       1.88700008E-13
   2.37599993       1.26668329E-13
   2.37700009       5.97983238E-14
   2.37800002      -1.16703623E-14
   2.37899995      -8.74784525E-14
   2.38000011      -1.67360510E-13
   2.38100004      -2.51055334E-13
   2.38199997      -3.38312332E-13
   2.38299990      -4.28893927E-13
   2.38400006      -5.22573467E-13
   2.38499999      -6.19129531E-13
   2.38599992      -7.18337445E-13
   2.38700008      -8.19959010E-13
   2.38800001      -9.23731577E-13
   2.38899994      -1.02935835E-12
   2.39000010      -1.13649997E-12
   2.39100003      -1.24477154E-12
   2.39199996      -1.35374058E-12
   2.39299989      -1.46293123E-12
   2.39400005      -1.57183077E-12
   2.39499998      -1.67989895E-12
   2.39599991      -1.78657881E-12
   2.39700007      -1.89130742E-12
   2.39800000      -1.99352622E-12
   2.39899993      -2.09268779E-12
   2.40000010      -2.18826216E-12
   2.40100002      -2.27973846E-12
   2.40199995      -2.36662708E-12
   2.40300012      -2.44845702E-12
   2.40400004      -2.52477379E-12
   2.40499997      -2.59513765E-12
   2.40599990      -2.65912119E-12
   2.40700006      -2.71630960E-12
   2.40799999      -2.76630064E-12
   2.40899992      -2.80870726E-12
   2.41000009      -2.84315995E-12
   2.41100001      -2.86931113E-12
   2.41199994      -2.88683704E-12
   2.41300011      -2.89543758E-12
   2.41400003      -2.89483455E-12
   2.41499996      -2.88476513E-12
   2.41599989      -2.86497041E-12
   2.41700006      -2.83518326E-12
   2.41799998      -2.79511050E-12
   2.41899991      -2.74441667E-12
   2.42000008      -2.68270866E-12
   2.42100000      -2.60952284E-12
   2.42199993      -2.52432125E-12
   2.42300010      -2.42649087E-12
   2.42400002      -2.31535581E-12
   2.42499995      -2.19019421E-12
   2.42600012      -2.05026295E-12
   2.42700005      -1.89482869E-12
   2.42799997      -1.72319873E-12
   2.42899990      -1.53475225E-12
   2.43000007      -1.32896688E-12
   2.43099999      -1.10543790E-12
   2.43199992      -8.63886111E-13
   2.43300009      -6.04156319E-13
   2.43400002      -3.26202200E-13
   2.43499994      -3.00615754E-14
   2.43600011       2.84177629E-13
   2.43700004       6.16415230E-13
   2.43799996       9.66576428E-13
   2.43899989       1.33464528E-12
   2.44000006       1.72068848E-12
   2.44099998       2.12486604E-12
   2.44199991       2.54742841E-12
   2.44300008       2.98869718E-12
   2.44400001       3.44903424E-12
   2.44499993       3.92880260E-12
   2.44600010       4.42832056E-12
   2.44700003       4.94782123E-12
   2.44799995       5.48741478E-12
   2.44899988       6.04706563E-12
   2.45000005       6.62658426E-12
   2.45099998       7.22563242E-12
   2.45199990       7.84374822E-12
   2.45300007       8.48037873E-12
   2.45400000       9.13492719E-12
   2.45499992       9.80679947E-12
   2.45600009       1.04954439E-11
   2.45700002       1.12003956E-11
   2.45799994       1.19212895E-11
   2.45900011       1.26578704E-11
   2.46000004       1.34099849E-11
   2.46099997       1.41775498E-11
   2.46199989       1.49605172E-11
   2.46300006       1.57588248E-11
   2.46399999       1.65723581E-11
   2.46499991       1.74008967E-11
   2.46600008       1.82440937E-11
   2.46700001       1.91014531E-11
   2.46799994       1.99723276E-11
   2.46900010       2.08559385E-11
   2.47000003       2.17513958E-11
   2.47099996       2.26577351E-11
   2.47199988       2.35739483E-11
   2.47300005       2.44990330E-11
   2.47399998       2.54319985E-11
   2.47499990       2.63719012E-11
   2.47600007       2.73178355E-11
   2.47700000       2.82689306E-11
   2.47799993       2.92243278E-11
   2.47900009       3.01831511E-11
   2.48000002       3.11444759E-11
   2.48099995       3.21073203E-11
   2.48200011       3.30705810E-11
   2.48300004       3.40330646E-11
   2.48399997       3.49934630E-11
   2.48499990       3.59503746E-11
   2.48600006       3.69023284E-11
   2.48699999       3.78478048E-11
   2.48799992       3.87852875E-11
   2.48900008       3.97132709E-11
   2.49000001       4.06302873E-11
   2.49099994       4.15349248E-11
   2.49200010       4.24258059E-11
   2.49300003       4.33015637E-11
   2.49399996       4.41608278E-11
   2.49499989       4.50021791E-11
   2.49600005       4.58241015E-11
   2.49699998       4.66249643E-11
   2.49799991       4.74029947E-11
   2.49900007       4.81562741E-11
   2.50000000       4.88827624E-11
   2.50099993       4.95803121E-11
   2.50200009       5.02467408E-11
   2.50300002       5.08798524E-11
   2.50399995       5.14775167E-11
   2.50500011       5.20377005E-11
   2.50600004       5.25585096E-11
   2.50699997       5.30381884E-11
   2.50799990       5.34751236E-11
   2.50900006       5.38677956E-11
   2.50999999       5.42147334E-11
   2.51099992       5.45144208E-11
   2.51200008       5.47652791E-11
   2.51300001       5.49655425E-11
   2.51399994       5.51132508E-11
   2.51500010       5.52062146E-11
   2.51600003       5.52419985E-11
   2.51699996       5.52179726E-11
   2.51799989       5.51313752E-11
   2.51900005       5.49793787E-11
   2.51999998       5.47591625E-11
   2.52099991       5.44680169E-11
   2.52200007       5.41033815E-11
   2.52300000       5.36629144E-11
   2.52399993       5.31444819E-11
   2.52500010       5.25461584E-11
   2.52600002       5.18661433E-11
   2.52699995       5.11027262E-11
   2.52800012       5.02541654E-11
   2.52900004       4.93186013E-11
   2.52999997       4.82939973E-11
   2.53099990       4.71780393E-11
   2.53200006       4.59681564E-11
   2.53299999       4.46614898E-11
   2.53399992       4.32549621E-11
   2.53500009       4.17453398E-11
   2.53600001       4.01293374E-11
   2.53699994       3.84036969E-11
   2.53800011       3.65652994E-11
   2.53900003       3.46112375E-11
   2.53999996       3.25388466E-11
   2.54099989       3.03457051E-11
   2.54200006       2.80296151E-11
   2.54299998       2.55885139E-11
   2.54399991       2.30203946E-11
   2.54500008       2.03231893E-11
   2.54600000       1.74946758E-11
   2.54699993       1.45323883E-11
   2.54800010       1.14335720E-11
   2.54900002       8.19516590E-12
   2.54999995       4.81383986E-12
   2.55100012       1.28606175E-12
   2.55200005      -2.39180572E-12
   2.55299997      -6.22338422E-12
   2.55399990      -1.02121705E-11
   2.55500007      -1.43614330E-11
   2.55599999      -1.86741473E-11
   2.55699992      -2.31529709E-11
   2.55800009      -2.78002604E-11
   2.55900002      -3.26181478E-11
   2.55999994      -3.76086245E-11
   2.56100011      -4.27736874E-11
   2.56200004      -4.81154630E-11
   2.56299996      -5.36363072E-11
   2.56399989      -5.93389227E-11
   2.56500006      -6.52263799E-11
   2.56599998      -7.13020962E-11
   2.56699991      -7.75698047E-11
   2.56800008      -8.40334191E-11
   2.56900001      -9.06969153E-11
   2.56999993      -9.75641859E-11
   2.57100010      -1.04638867E-10
   2.57200003      -1.11924268E-10
   2.57299995      -1.19423291E-10
   2.57399988      -1.27138425E-10
   2.57500005      -1.35071815E-10
   2.57599998      -1.43225293E-10
   2.57699990      -1.51600649E-10
   2.57800007      -1.60199673E-10
   2.57900000      -1.69024392E-10
   2.57999992      -1.78077220E-10
   2.58100009      -1.87361029E-10
   2.58200002      -1.96879207E-10
   2.58299994      -2.06635681E-10
   2.58400011      -2.16634780E-10
   2.58500004      -2.26881222E-10
   2.58599997      -2.37379782E-10
   2.58699989      -2.48135290E-10
   2.58800006      -2.59152283E-10
   2.58899999      -2.70435063E-10
   2.58999991      -2.81987461E-10
   2.59100008      -2.93812863E-10
   2.59200001      -3.05914349E-10
   2.59299994      -3.18294557E-10
   2.59400010      -3.30956179E-10
   2.59500003      -3.43901824E-10
   2.59599996      -3.57134350E-10
   2.59699988      -3.70657005E-10
   2.59800005      -3.84473481E-10
   2.59899998      -3.98588051E-10
   2.59999990      -4.13005435E-10
   2.60100007      -4.27730878E-10
   2.60200000      -4.42769987E-10
   2.60299993      -4.58128341E-10
   2.60400009      -4.73811768E-10
   2.60500002      -4.89825791E-10
   2.60599995      -5.06175768E-10
   2.60700011      -5.22866694E-10
   2.60800004      -5.39903122E-10
   2.60899997      -5.57289492E-10
   2.60999990      -5.75029913E-10
   2.61100006      -5.93128546E-10
   2.61199999      -6.11589501E-10
   2.61299992      -6.30417329E-10
   2.61400008      -6.49616860E-10
   2.61500001      -6.69193478E-10
   2.61599994      -6.89153012E-10
   2.61700010      -7.09501902E-10
   2.61800003      -7.30247030E-10
   2.61899996      -7.51395557E-10
   2.61999989      -7.72954978E-10
   2.62100005      -7.94932842E-10
   2.62199998      -8.17336643E-10
   2.62299991      -8.40173708E-10
   2.62400007      -8.63451199E-10
   2.62500000      -8.87176110E-10
   2.62599993      -9.11355269E-10
   2.62700009      -9.35995503E-10
   2.62800002      -9.61103863E-10
   2.62899995      -9.86687620E-10
   2.63000011      -1.01275444E-09
   2.63100004      -1.03931241E-09
   2.63199997      -1.06637044E-09
   2.63299990      -1.09393794E-09
   2.63400006      -1.12202503E-09
   2.63499999      -1.15064236E-09
   2.63599992      -1.17980081E-09
   2.63700008      -1.20951138E-09
   2.63800001      -1.23978561E-09
   2.63899994      -1.27063460E-09
   2.64000010      -1.30206923E-09
   2.64100003      -1.33410039E-09
   2.64199996      -1.36673850E-09
   2.64299989      -1.39999401E-09
   2.64400005      -1.43387657E-09
   2.64499998      -1.46839652E-09
   2.64599991      -1.50356372E-09
   2.64700007      -1.53938828E-09
   2.64800000      -1.57588054E-09
   2.64899993      -1.61305092E-09
   2.65000010      -1.65091008E-09
   2.65100002      -1.68946912E-09
   2.65199995      -1.72873893E-09
   2.65300012      -1.76873061E-09
   2.65400004      -1.80945481E-09
   2.65499997      -1.85092230E-09
   2.65599990      -1.89314320E-09
   2.65700006      -1.93612681E-09
   2.65799999      -1.97988315E-09
   2.65899992      -2.02442019E-09
   2.66000009      -2.06974637E-09
   2.66100001      -2.11586970E-09
   2.66199994      -2.16279772E-09
   2.66300011      -2.21053820E-09
   2.66400003      -2.25909980E-09
   2.66499996      -2.30849029E-09
   2.66599989      -2.35871833E-09
   2.66700006      -2.40979348E-09
   2.66799998      -2.46172549E-09
   2.66899991      -2.51452459E-09
   2.67000008      -2.56820165E-09
   2.67100000      -2.62276822E-09
   2.67199993      -2.67823608E-09
   2.67300010      -2.73461764E-09
   2.67400002      -2.79192536E-09
   2.67499995      -2.85017321E-09
   2.67600012      -2.90937519E-09
   2.67700005      -2.96954616E-09
   2.67799997      -3.03070280E-09
   2.67899990      -3.09286308E-09
   2.68000007      -3.15604543E-09
   2.68099999      -3.22027183E-09
   2.68199992      -3.28556449E-09
   2.68300009      -3.35194894E-09
   2.68400002      -3.41945183E-09
   2.68499994      -3.48810225E-09
   2.68600011      -3.55793084E-09
   2.68700004      -3.62896957E-09
   2.68799996      -3.70125219E-09
   2.68899989      -3.77481335E-09
   2.69000006      -3.84968901E-09
   2.69099998      -3.92591559E-09
   2.69199991      -4.00353040E-09
   2.69300008      -4.08257161E-09
   2.69400001      -4.16307788E-09
   2.69499993      -4.24508828E-09
   2.69600010      -4.32864278E-09
   2.69700003      -4.41378223E-09
   2.69799995      -4.50054749E-09
   2.69899988      -4.58897942E-09
   2.70000005      -4.67912020E-09
   2.70099998      -4.77101159E-09
   2.70199990      -4.86469354E-09
   2.70300007      -4.96020780E-09
   2.70400000      -5.05759346E-09
   2.70499992      -5.15689136E-09
   2.70600009      -5.25813926E-09
   2.70700002      -5.36137401E-09
   2.70799994      -5.46663292E-09
   2.70900011      -5.57395152E-09
   2.71000004      -5.68336622E-09
   2.71099997      -5.79491299E-09
   2.71199989      -5.90862870E-09
   2.71300006      -6.02455064E-09
   2.71399999      -6.14271745E-09
   2.71499991      -6.26316909E-09
   2.71600008      -6.38594777E-09
   2.71700001      -6.51109788E-09
   2.71799994      -6.63866340E-09
   2.71900010      -6.76869183E-09
   2.72000003      -6.90123203E-09
   2.72099996      -7.03633374E-09
   2.72199988      -7.17404847E-09
   2.72300005      -7.31442906E-09
   2.72399998      -7.45752970E-09
   2.72499990      -7.60340502E-09
   2.72600007      -7.75211184E-09
   2.72700000      -7.90370791E-09
   2.72799993      -8.05825096E-09
   2.72900009      -8.21580226E-09
   2.73000002      -8.37642400E-09
   2.73099995      -8.54017834E-09
   2.73200011      -8.70713457E-09
   2.73300004      -8.87735574E-09
   2.73399997      -9.05091202E-09
   2.73499990      -9.22787269E-09
   2.73600006      -9.40830791E-09
   2.73699999      -9.59229052E-09
   2.73799992      -9.77989068E-09
   2.73900008      -9.97118033E-09
   2.74000001      -1.01662296E-08
   2.74099994      -1.03651132E-08
   2.74200010      -1.05679030E-08
   2.74300003      -1.07746727E-08
   2.74399996      -1.09854987E-08
   2.74499989      -1.12004583E-08
   2.74600005      -1.14196306E-08
   2.74699998      -1.16430972E-08
   2.74799991      -1.18709416E-08
   2.74900007      -1.21032500E-08
   2.75000000      -1.23401112E-08
   2.75099993      -1.25816166E-08
   2.75200009      -1.28278561E-08
   2.75300002      -1.30789264E-08
   2.75399995      -1.33349198E-08
   2.75500011      -1.35959315E-08
   2.75600004      -1.38620555E-08
   2.75699997      -1.41333887E-08
   2.75799990      -1.44100225E-08
   2.75900006      -1.46920547E-08
   2.75999999      -1.49795785E-08
   2.76099992      -1.52726880E-08
   2.76200008      -1.55714801E-08
   2.76300001      -1.58760471E-08
   2.76399994      -1.61864886E-08
   2.76500010      -1.65028986E-08
   2.76600003      -1.68253749E-08
   2.76699996      -1.71540151E-08
   2.76799989      -1.74889117E-08
   2.76900005      -1.78301658E-08
   2.76999998      -1.81778752E-08
   2.77099991      -1.85321340E-08
   2.77200007      -1.88930436E-08
   2.77300000      -1.92606997E-08
   2.77399993      -1.96352001E-08
   2.77500010      -2.00166461E-08
   2.77600002      -2.04051354E-08
   2.77699995      -2.08007709E-08
   2.77800012      -2.12036539E-08
   2.77900004      -2.16138893E-08
   2.77999997      -2.20315783E-08
   2.78099990      -2.24568293E-08
   2.78200006      -2.28897523E-08
   2.78299999      -2.33304505E-08
   2.78399992      -2.37790392E-08
   2.78500009      -2.42356286E-08
   2.78600001      -2.47003289E-08
   2.78699994      -2.51732537E-08
   2.78800011      -2.56545114E-08
   2.78900003      -2.61442157E-08
   2.78999996      -2.66424820E-08
   2.79099989      -2.71494169E-08
   2.79200006      -2.76651360E-08
   2.79299998      -2.81897510E-08
   2.79399991      -2.87233757E-08
   2.79500008      -2.92661309E-08
   2.79600000      -2.98181320E-08
   2.79699993      -3.03794963E-08
   2.79800010      -3.09503463E-08
   2.79900002      -3.15308029E-08
   2.79999995      -3.21209903E-08
   2.80100012      -3.27210365E-08
   2.80200005      -3.33310659E-08
   2.80299997      -3.39512134E-08
   2.80399990      -3.45816069E-08
   2.80500007      -3.52223850E-08
   2.80599999      -3.58736791E-08
   2.80699992      -3.65356279E-08
   2.80800009      -3.72083768E-08
   2.80900002      -3.78920681E-08
   2.80999994      -3.85868439E-08
   2.81100011      -3.92928570E-08
   2.81200004      -4.00102600E-08
   2.81299996      -4.07392093E-08
   2.81399989      -4.14798613E-08
   2.81500006      -4.22323865E-08
   2.81599998      -4.29969447E-08
   2.81699991      -4.37737064E-08
   2.81800008      -4.45628388E-08
   2.81900001      -4.53645121E-08
   2.81999993      -4.61789078E-08
   2.82100010      -4.70061998E-08
   2.82200003      -4.78465694E-08
   2.82299995      -4.87001977E-08
   2.82399988      -4.95672694E-08
   2.82500005      -5.04479694E-08
   2.82599998      -5.13424894E-08
   2.82699990      -5.22510213E-08
   2.82800007      -5.31737641E-08
   2.82900000      -5.41109095E-08
   2.82999992      -5.50626496E-08
   2.83100009      -5.60291902E-08
   2.83200002      -5.70107304E-08
   2.83299994      -5.80074726E-08
   2.83400011      -5.90196123E-08
   2.83500004      -6.00473555E-08
   2.83599997      -6.10909083E-08
   2.83699989      -6.21504626E-08
   2.83800006      -6.32262314E-08
   2.83899999      -6.43184208E-08
   2.83999991      -6.54272370E-08
   2.84100008      -6.65528930E-08
   2.84200001      -6.76956020E-08
   2.84299994      -6.88555843E-08
   2.84400010      -7.00330602E-08
   2.84500003      -7.12282571E-08
   2.84599996      -7.24414093E-08
   2.84699988      -7.36727443E-08
   2.84800005      -7.49225038E-08
   2.84899998      -7.61909291E-08
   2.84999990      -7.74782762E-08
   2.85100007      -7.87847867E-08
   2.85200000      -8.01107234E-08
   2.85299993      -8.14563492E-08
   2.85400009      -8.28219271E-08
   2.85500002      -8.42077199E-08
   2.85599995      -8.56140048E-08