   2.00000000       0.00000000    
   2.00099993       0.00000000    
   2.00200009       0.00000000    
   2.00300002       0.00000000    
   2.00399995       0.00000000    
   2.00500011       0.00000000    
   2.00600004       0.00000000    
   2.00699997       0.00000000    
   2.00799990       0.00000000    
   2.00900006       5.88545355E-44
   2.00999999      -8.37493448E-37
   2.01099992      -7.13568549E-36
   2.01200008      -2.31435452E-35
   2.01300001      -3.76507253E-35
   2.01399994      -8.35003917E-35
   2.01500010      -5.65644805E-34
   2.01600003      -2.97539918E-33
   2.01699996      -1.07339473E-32
   2.01799989      -2.91619342E-32
   2.01900005      -6.24789001E-32
   2.01999998      -1.05495975E-31
   2.02099991      -1.31704186E-31
   2.02200007      -8.97808496E-32
   2.02300000       7.22645673E-32
   2.02399993       3.52977585E-31
   2.02500010       6.55196665E-31
   2.02600002       8.21221324E-31
   2.02699995       7.47533956E-31
   2.02800012       4.52953191E-31
   2.02900004      -4.78280439E-32
   2.02999997      -9.70360430E-31
   2.03099990      -2.65535861E-30
   2.03200006      -4.81182349E-30
   2.03299999      -5.64457416E-30
   2.03399992      -2.29820129E-30
   2.03500009       6.47101026E-30
   2.03600001       1.69210113E-29
   2.03699994       2.01472630E-29
   2.03800011       7.92544622E-30
   2.03900003      -1.81435465E-29
   2.03999996      -4.26630497E-29
   2.04099989      -4.50020344E-29
   2.04200006      -1.72512391E-29
   2.04299998       2.36696926E-29
   2.04399991       4.50315914E-29
   2.04500008       2.60352927E-29
   2.04600000      -2.03506292E-29
   2.04699993      -5.80731314E-29
   2.04800010      -6.80692254E-29
   2.04900002      -7.50299033E-29
   2.04999995      -1.13363222E-28
   2.05100012      -1.39106995E-28
   2.05200005       2.71813745E-29
   2.05299997       6.20414209E-28
   2.05399990       1.69877999E-27
   2.05500007       2.90293090E-27
   2.05599999       3.43898981E-27
   2.05699992       2.41683832E-27
   2.05800009      -5.87957764E-28
   2.05900002      -5.10948213E-27
   2.05999994      -9.84116922E-27
   2.06100011      -1.31852030E-26
   2.06200004      -1.39502856E-26
   2.06299996      -1.17229961E-26
   2.06399989      -6.70020474E-27
   2.06500006       7.81172930E-28
   2.06599998       1.05305451E-26
   2.06699991       2.23054334E-26
   2.06800008       3.53008353E-26
   2.06900001       4.78168469E-26
   2.06999993       5.74127913E-26
   2.07100010       6.12822465E-26
   2.07200003       5.61744892E-26
   2.07299995       3.75109000E-26
   2.07399988      -1.56473498E-27
   2.07500005      -6.93195373E-26
   2.07599998      -1.70787659E-25
   2.07699990      -2.99136598E-25
   2.07800007      -4.26070431E-25
   2.07900000      -4.97408996E-25
   2.07999992      -4.40690045E-25
   2.08100009      -1.88263109E-25
   2.08200002       2.87921239E-25
   2.08299994       9.42117153E-25
   2.08400011       1.63879937E-24
   2.08500004       2.17043502E-24
   2.08599997       2.31351920E-24
   2.08699989       1.91011742E-24
   2.08800006       9.45641094E-25
   2.08899999      -4.13483095E-25
   2.08999991      -1.84983484E-24
   2.09100008      -2.99568450E-24
   2.09200001      -3.57483048E-24
   2.09299994      -3.52974274E-24
   2.09400010      -3.07252704E-24
   2.09500003      -2.62114123E-24
   2.09599996      -2.62931462E-24
   2.09699988      -3.37177019E-24
   2.09800005      -4.77983444E-24
   2.09899998      -6.41395310E-24
   2.09999990      -7.60317709E-24
   2.10100007      -7.69651117E-24
   2.10200000      -6.29854117E-24
   2.10299993      -3.34868772E-24
   2.10400009       1.02422268E-24
   2.10500002       6.80063734E-24
   2.10599995       1.43104338E-23
   2.10700011       2.41531618E-23
   2.10800004       3.66458739E-23
   2.10899997       5.09070496E-23
   2.10999990       6.39949778E-23
   2.11100006       7.07083608E-23
   2.11199999       6.45678486E-23
   2.11299992       4.00781382E-23
   2.11400008      -4.26308282E-24
   2.11500001      -6.33273869E-23
   2.11599994      -1.24432837E-22
   2.11700010      -1.69143542E-22
   2.11800003      -1.77923324E-22
   2.11899996      -1.36642914E-22
   2.11999989      -4.29941058E-23
   2.12100005       8.94652391E-23
   2.12199998       2.31414050E-22
   2.12299991       3.42583560E-22
   2.12400007       3.80342003E-22
   2.12500000       3.09867517E-22
   2.12599993       1.13242838E-22
   2.12700009      -2.04730180E-22
   2.12800002      -6.14982734E-22
   2.12899995      -1.06643059E-21
   2.13000011      -1.49050404E-21
   2.13100004      -1.80628983E-21
   2.13199997      -1.92550158E-21
   2.13299990      -1.75805304E-21
   2.13400006      -1.22047995E-21
   2.13499999      -2.49937338E-22
   2.13599992       1.17474642E-21
   2.13700008       3.00652243E-21
   2.13800001       5.10379404E-21
   2.13899994       7.21381385E-21
   2.14000010       8.97684027E-21
   2.14100003       9.95990727E-21
   2.14199996       9.72260822E-21
   2.14299989       7.90791532E-21
   2.14400005       4.34137707E-21
   2.14499998      -8.84122385E-22
   2.14599991      -7.36015858E-21
   2.14700007      -1.43642030E-20
   2.14800000      -2.09076992E-20
   2.14899993      -2.58092888E-20
   2.15000010      -2.77576158E-20
   2.15100002      -2.53254318E-20
   2.15199995      -1.69110743E-20
   2.15300012      -6.14949817E-22
   2.15400004       2.58964982E-20
   2.15499997       6.54408109E-20
   2.15599990       1.21151962E-19
   2.15700006       1.95961737E-19
   2.15799999       2.91637983E-19
   2.15899992       4.07379627E-19
   2.16000009       5.38101771E-19
   2.16100001       6.72699773E-19
   2.16199994       7.92720320E-19
   2.16300011       8.71953314E-19
   2.16400003       8.77443208E-19
   2.16499996       7.72286632E-19
   2.16599989       5.20320800E-19
   2.16700006       9.24567559E-20
   2.16799998      -5.25986367E-19
   2.16899991      -1.32794562E-18
   2.17000008      -2.27852235E-18
   2.17100000      -3.31143870E-18
   2.17199993      -4.32919532E-18
   2.17300010      -5.20769256E-18
   2.17400002      -5.80553115E-18
   2.17499995      -5.97752185E-18
   2.17600012      -5.59125869E-18
   2.17700005      -4.54500840E-18
   2.17799997      -2.78477405E-18
   2.17899990      -3.18255001E-19
   2.18000007       2.77638685E-18
   2.18099999       6.34852600E-18
   2.18199992       1.01806271E-17
   2.18300009       1.40011717E-17
   2.18400002       1.75037588E-17
   2.18499994       2.03702904E-17
   2.18600011       2.22956277E-17
   2.18700004       2.30108676E-17
   2.18799996       2.23028937E-17
   2.18899989       2.00285953E-17
   2.19000006       1.61234177E-17
   2.19099998       1.06050858E-17
   2.19199991       3.57440831E-18
   2.19300008      -4.78453839E-18
   2.19400001      -1.42028284E-17
   2.19499993      -2.43228274E-17
   2.19600010      -3.46929111E-17
   2.19700003      -4.47635505E-17
   2.19799995      -5.38892784E-17
   2.19899988      -6.13417952E-17
   2.20000005      -6.63390712E-17
   2.20099998      -6.80933360E-17
   2.20199990      -6.58776500E-17
   2.20300007      -5.91068789E-17
   2.20400000      -4.74247494E-17
   2.20499992      -3.07857301E-17
   2.20600009      -9.51895295E-18
   2.20700002       1.56378726E-17
   2.20799994       4.35435021E-17
   2.20900011       7.27013077E-17
   2.21000004       1.01348551E-16
   2.21099997       1.27578739E-16
   2.21199989       1.49483951E-16
   2.21300006       1.65300888E-16
   2.21399999       1.73543909E-16
   2.21499991       1.73110069E-16
   2.21600008       1.63346148E-16
   2.21700001       1.44072509E-16
   2.21799994       1.15565642E-16
   2.21900010       7.85063951E-17
   2.22000003       3.39050911E-17
   2.22099996      -1.69830453E-17
   2.22199988      -7.27392389E-17
   2.22300005      -1.31848328E-16
   2.22399998      -1.92744782E-16
   2.22499990      -2.53834704E-16
   2.22600007      -3.13495788E-16
   2.22700000      -3.70060410E-16
   2.22799993      -4.21789559E-16
   2.22900009      -4.66846709E-16
   2.23000002      -5.03279025E-16
   2.23099995      -5.29012945E-16
   2.23200011      -5.41869476E-16
   2.23300004      -5.39600433E-16
   2.23399997      -5.19947310E-16
   2.23499990      -4.80722697E-16
   2.23600006      -4.19912084E-16
   2.23699999      -3.35797000E-16
   2.23799992      -2.27096892E-16
   2.23900008      -9.31298564E-17
   2.24000001       6.60109055E-17
   2.24099994       2.49268482E-16
   2.24200010       4.54429153E-16
   2.24300003       6.77935948E-16
   2.24399996       9.14726232E-16
   2.24499989       1.15811480E-15
   2.24600005       1.39974852E-15
   2.24699998       1.62966354E-15
   2.24799991       1.83647140E-15
   2.24900007       2.00769890E-15
   2.25000000       2.13029443E-15
   2.25099993       2.19130049E-15
   2.25200009       2.17866657E-15
   2.25300002       2.08216009E-15
   2.25399995       1.89430999E-15
   2.25500011       1.61129627E-15
   2.25600004       1.23369290E-15
   2.25699997       7.66975522E-16
   2.25799990       2.21712409E-16
   2.25900006      -3.86607834E-16
   2.25999999      -1.03812771E-15
   2.26099992      -1.70952223E-15
   2.26200008      -2.37517949E-15
   2.26300001      -3.00855706E-15
   2.26399994      -3.58358507E-15
   2.26500010      -4.07598438E-15
   2.26600003      -4.46437778E-15
   2.26699996      -4.73110719E-15
   2.26799989      -4.86270858E-15
   2.26900005      -4.85004967E-15
   2.26999998      -4.68818210E-15
   2.27099991      -4.37600345E-15
   2.27200007      -3.91584348E-15
   2.27300000      -3.31309081E-15
   2.27399993      -2.57596166E-15
   2.27500010      -1.71546481E-15
   2.27600002      -7.45573382E-16
   2.27699995       3.16442218E-16
   2.27800012       1.44961759E-15
   2.27900004       2.62895479E-15
   2.27999997       3.82527448E-15
   2.28099990       5.00537349E-15
   2.28200006       6.13256682E-15
   2.28299999       7.16763092E-15
   2.28399992       8.07010302E-15
   2.28500009       8.79983207E-15
   2.28600001       9.31863975E-15
   2.28699994       9.59192561E-15
   2.28800011       9.59006044E-15
   2.28900003       9.28945692E-15
   2.28999996       8.67327603E-15
   2.29099989       7.73179890E-15
   2.29200006       6.46255137E-15
   2.29299998       4.87037931E-15
   2.29399991       2.96761889E-15
   2.29500008       7.74547468E-16
   2.29600000      -1.67978397E-15
   2.29699993      -4.35636160E-15
   2.29800010      -7.20478178E-15
   2.29900002      -1.01618585E-14
   2.29999995      -1.31506287E-14
   2.30100012      -1.60801582E-14
   2.30200005      -1.88465356E-14
   2.30299997      -2.13353420E-14
   2.30399990      -2.34256889E-14
   2.30500007      -2.49957170E-14
   2.30599999      -2.59292083E-14
   2.30699992      -2.61227587E-14
   2.30800009      -2.54928033E-14
   2.30900002      -2.39818117E-14
   2.30999994      -2.15629415E-14
   2.31100011      -1.82427265E-14
   2.31200004      -1.40615736E-14
   2.31299996      -9.09216685E-15
   2.31399989      -3.43614310E-15
   2.31500006       2.78036998E-15
   2.31599998       9.41171003E-15
   2.31699991       1.62975051E-14
   2.31800008       2.32669685E-14
   2.31900001       3.01425246E-14
   2.31999993       3.67429747E-14
   2.32100010       4.28866842E-14
   2.32200003       4.83953833E-14
   2.32299995       5.30992520E-14
   2.32399988       5.68436086E-14
   2.32500005       5.94971189E-14
   2.32599998       6.09609544E-14
   2.32699990       6.11776322E-14
   2.32800007       6.01378688E-14
   2.32900000       5.78834872E-14
   2.32999992       5.45046017E-14
   2.33100009       5.01296155E-14
   2.33200002       4.49076946E-14
   2.33299994       3.89844542E-14
   2.33400011       3.24730341E-14
   2.33500004       2.54241615E-14
   2.33599997       1.77998214E-14
   2.33699989       9.45595480E-15
   2.33800006       1.39311085E-16
   2.33899999      -1.04970862E-14
   2.33999991      -2.28572485E-14
   2.34100008      -3.73440767E-14
   2.34200001      -5.42824588E-14
   2.34299994      -7.38294991E-14
   2.34400010      -9.58807076E-14
   2.34500003      -1.19983301E-13
   2.34599996      -1.45269268E-13
   2.34699988      -1.70420915E-13
   2.34800005      -1.93680629E-13
   2.34899998      -2.12913536E-13
   2.34999990      -2.25728141E-13
   2.35100007      -2.29654783E-13
   2.35200000      -2.22376222E-13
   2.35299993      -2.01998791E-13
   2.35400009      -1.67347256E-13
   2.35500002      -1.18262469E-13
   2.35599995      -5.58775065E-14
   2.35700011       1.71518497E-14
   2.35800004       9.64857060E-14
   2.35899997       1.76026931E-13
   2.35999990       2.47949366E-13
   2.36100006       3.02832819E-13
   2.36199999       3.29900387E-13
   2.36299992       3.17344539E-13
   2.36400008       2.52718148E-13
   2.36500001       1.23360239E-13
   2.36599994      -8.31814476E-14
   2.36700010      -3.78768956E-13
   2.36800003      -7.74372157E-13
   2.36899996      -1.27987757E-12
   2.36999989      -1.90403054E-12
   2.37100005      -2.65451983E-12
   2.37199998      -3.53820011E-12
   2.37299991      -4.56143326E-12
   2.37400007      -5.73050548E-12
   2.37500000      -7.05209198E-12
   2.37599993      -8.53369111E-12
   2.37700009      -1.01839995E-11
   2.37800002      -1.20131578E-11
   2.37899995      -1.40328487E-11
   2.38000011      -1.62562065E-11
   2.38100004      -1.86975574E-11
   2.38199997      -2.13719962E-11
   2.38299990      -2.42948422E-11
   2.38400006      -2.74810452E-11
   2.38499999      -3.09445802E-11
   2.38599992      -3.46979390E-11
   2.38700008      -3.87517379E-11
   2.38800001      -4.31145397E-11
   2.38899994      -4.77928946E-11
   2.39000010      -5.27915905E-11
   2.39100003      -5.81141454E-11
   2.39199996      -6.37634390E-11
   2.39299989      -6.97424341E-11
   2.39400005      -7.60549540E-11
   2.39499998      -8.27063695E-11
   2.39599991      -8.97041399E-11
   2.39700007      -9.70581740E-11
   2.39800000      -1.04780962E-10
   2.39899993      -1.12887373E-10
   2.40000010      -1.21394339E-10
   2.40100002      -1.30320282E-10
   2.40199995      -1.39684375E-10
   2.40300012      -1.49505935E-10
   2.40400004      -1.59803698E-10
   2.40499997      -1.70595316E-10
   2.40599990      -1.81897081E-10
   2.40700006      -1.93723829E-10
   2.40799999      -2.06089049E-10
   2.40899992      -2.19005383E-10
   2.41000009      -2.32485045E-10
   2.41100001      -2.46540538E-10
   2.41199994      -2.61185296E-10
   2.41300011      -2.76434153E-10
   2.41400003      -2.92303765E-10
   2.41499996      -3.08812614E-10
   2.41599989      -3.25981020E-10
   2.41700006      -3.43830686E-10
   2.41799998      -3.62384206E-10
   2.41899991      -3.81664256E-10
   2.42000008      -4.01693068E-10
   2.42100000      -4.22491708E-10
   2.42199993      -4.44079690E-10
   2.42300010      -4.66474914E-10
   2.42400002      -4.89693508E-10
   2.42499995      -5.13750598E-10
   2.42600012      -5.38661005E-10
   2.42700005      -5.64439717E-10
   2.42799997      -5.91103166E-10
   2.42899990      -6.18670171E-10
   2.43000007      -6.47162490E-10
   2.43099999      -6.76605050E-10
   2.43199992      -7.07026493E-10
   2.43300009      -7.38458406E-10
   2.43400002      -7.70934816E-10
   2.43499994      -8.04491140E-10
   2.43600011      -8.39163072E-10
   2.43700004      -8.74985417E-10
   2.43799996      -9.11990705E-10
   2.43899989      -9.50208912E-10
   2.44000006      -9.89666460E-10
   2.44099998      -1.03038678E-09
   2.44199991      -1.07239007E-09
   2.44300008      -1.11569498E-09
   2.44400001      -1.16031906E-09
   2.44499993      -1.20628063E-09
   2.44600010      -1.25360000E-09
   2.44700003      -1.30230060E-09
   2.44799995      -1.35241007E-09
   2.44899988      -1.40396050E-09
   2.45000005      -1.45698853E-09
   2.45099998      -1.51153479E-09
   2.45199990      -1.56764268E-09
   2.45300007      -1.62535763E-09
   2.45400000      -1.68472536E-09
   2.45499992      -1.74579062E-09
   2.45600009      -1.80859605E-09
   2.45700002      -1.87318228E-09
   2.45799994      -1.93958694E-09
   2.45900011      -2.00784611E-09
   2.46000004      -2.07799467E-09
   2.46099997      -2.15006857E-09
   2.46199989      -2.22410557E-09
   2.46300006      -2.30014829E-09
   2.46399999      -2.37824493E-09
   2.46499991      -2.45845011E-09
   2.46600008      -2.54082666E-09
   2.46700001      -2.62544431E-09
   2.46799994      -2.71237788E-09
   2.46900010      -2.80170753E-09
   2.47000003      -2.89351565E-09
   2.47099996      -2.98788505E-09
   2.47199988      -3.08489589E-09
   2.47300005      -3.18462390E-09
   2.47399998      -3.28714034E-09
   2.47499990      -3.39250938E-09
   2.47600007      -3.50079077E-09
   2.47700000      -3.61203911E-09
   2.47799993      -3.72630593E-09
   2.47900009      -3.84364185E-09
   2.48000002      -3.96410016E-09
   2.48099995      -4.08773637E-09
   2.48200011      -4.21461266E-09
   2.48300004      -4.34479608E-09
   2.48399997      -4.47836079E-09
   2.48499990      -4.61538496E-09
   2.48600006      -4.75595208E-09
   2.48699999      -4.90014651E-09
   2.48799992      -5.04805087E-09
   2.48900008      -5.19974730E-09
   2.49000001      -5.35531042E-09
   2.49099994      -5.51480994E-09
   2.49200010      -5.67830893E-09
   2.49300003      -5.84586557E-09
   2.49399996      -6.01753314E-09
   2.49499989      -6.19336360E-09
   2.49600005      -6.37341202E-09
   2.49699998      -6.55773480E-09
   2.49799991      -6.74639855E-09
   2.49900007      -6.93947655E-09
   2.50000000      -7.13705095E-09
   2.50099993      -7.33921546E-09
   2.50200009      -7.54607132E-09
   2.50300002      -7.75772424E-09
   2.50399995      -7.97428434E-09
   2.50500011      -8.19586443E-09
   2.50600004      -8.42257286E-09
   2.50699997      -8.65451533E-09
   2.50799990      -8.89179042E-09
   2.50900006      -9.13449583E-09
   2.50999999      -9.38272127E-09
   2.51099992      -9.63655911E-09
   2.51200008      -9.89610260E-09
   2.51300001      -1.01614503E-08
   2.51399994      -1.04327107E-08
   2.51500010      -1.07100053E-08
   2.51600003      -1.09934675E-08
   2.51699996      -1.12832446E-08
   2.51799989      -1.15794982E-08
   2.51900005      -1.18824000E-08
   2.51999998      -1.21921264E-08
   2.52099991      -1.25088562E-08
   2.52200007      -1.28327660E-08
   2.52300000      -1.31640263E-08
   2.52399993      -1.35027971E-08
   2.52500010      -1.38492284E-08
   2.52600002      -1.42034597E-08
   2.52699995      -1.45656234E-08
   2.52800012      -1.49358463E-08
   2.52900004      -1.53142583E-08
   2.52999997      -1.57009907E-08
   2.53099990      -1.60961910E-08
   2.53200006      -1.65000156E-08
   2.53299999      -1.69126437E-08
   2.53399992      -1.73342709E-08
   2.53500009      -1.77651067E-08
   2.53600001      -1.82053750E-08
   2.53699994      -1.86553013E-08
   2.53800011      -1.91151166E-08
   2.53900003      -1.95850411E-08
   2.53999996      -2.00652881E-08
   2.54099989      -2.05560546E-08
   2.54200006      -2.10575202E-08
   2.54299998      -2.15698552E-08
   2.54399991      -2.20932090E-08
   2.54500008      -2.26277326E-08
   2.54600000      -2.31735768E-08
   2.54699993      -2.37308999E-08
   2.54800010      -2.42998688E-08
   2.54900002      -2.48806735E-08
   2.54999995      -2.54735255E-08
   2.55100012      -2.60786557E-08
   2.55200005      -2.66963092E-08
   2.55299997      -2.73267453E-08
   2.55399990      -2.79702252E-08
   2.55500007      -2.86270065E-08
   2.55599999      -2.92973379E-08
   2.55699992      -2.99814467E-08
   2.55800009      -3.06795300E-08
   2.55900002      -3.13917816E-08
   2.55999994      -3.21183578E-08
   2.56100011      -3.28593970E-08
   2.56200004      -3.36150343E-08
   2.56299996      -3.43854083E-08
   2.56399989      -3.51706646E-08
   2.56500006      -3.59709666E-08
   2.56599998      -3.67864956E-08
   2.56699991      -3.76174683E-08
   2.56800008      -3.84641226E-08
   2.56900001      -3.93267108E-08
   2.56999993      -4.02055100E-08
   2.57100010      -4.11007974E-08
   2.57200003      -4.20128607E-08
   2.57299995      -4.29419593E-08
   2.57399988      -4.38883561E-08
   2.57500005      -4.48522819E-08
   2.57599998      -4.58339642E-08
   2.57699990      -4.68336054E-08
   2.57800007      -4.78514188E-08
   2.57900000      -4.88875962E-08
   2.57999992      -4.99423649E-08
   2.58100009      -5.10159701E-08
   2.58200002      -5.21086783E-08
   2.58299994      -5.32208020E-08
   2.58400011      -5.43526930E-08
   2.58500004      -5.55047315E-08
   2.58599997      -5.66773366E-08
   2.58699989      -5.78709312E-08
   2.58800006      -5.90859699E-08
   2.58899999      -6.03228827E-08
   2.58999991      -6.15821136E-08
   2.59100008      -6.28640890E-08
   2.59200001      -6.41692210E-08
   2.59299994      -6.54979146E-08
   2.59400010      -6.68505677E-08
   2.59500003      -6.82275996E-08
   2.59599996      -6.96294364E-08
   2.59699988      -7.10565260E-08
   2.59800005      -7.25093727E-08
   2.59899998      -7.39885024E-08
   2.59999990      -7.54944836E-08
   2.60100007      -7.70279414E-08
   2.60200000      -7.85895082E-08
   2.60299993      -8.01798521E-08
   2.60400009      -8.17996550E-08
   2.60500002      -8.34495992E-08
   2.60599995      -8.51303312E-08
   2.60700011      -8.68424834E-08
   2.60800004      -8.85866882E-08
   2.60899997      -9.03635211E-08
   2.60999990      -9.21735577E-08
   2.61100006      -9.40173521E-08
   2.61199999      -9.58954658E-08
   2.61299992      -9.78084742E-08
   2.61400008      -9.97569742E-08
   2.61500001      -1.01741570E-07
   2.61599994      -1.03762929E-07
   2.61700010      -1.05821748E-07
   2.61800003      -1.07918716E-07
   2.61899996      -1.10054565E-07
   2.61999989      -1.12230019E-07
   2.62100005      -1.14445797E-07
   2.62199998      -1.16702594E-07
   2.62299991      -1.19001079E-07
   2.62400007      -1.21341884E-07
   2.62500000      -1.23725627E-07
   2.62599993      -1.26152855E-07
   2.62700009      -1.28624123E-07
   2.62800002      -1.31139998E-07
   2.62899995      -1.33700965E-07
   2.63000011      -1.36307548E-07
   2.63100004      -1.38960260E-07
   2.63199997      -1.41659584E-07
   2.63299990      -1.44406044E-07
   2.63400006      -1.47200112E-07
   2.63499999      -1.50042240E-07
   2.63599992      -1.52932799E-07
   2.63700008      -1.55872186E-07
   2.63800001      -1.58860615E-07
   2.63899994      -1.61898313E-07
   2.64000010      -1.64985352E-07
   2.64100003      -1.68121701E-07
   2.64199996      -1.71307278E-07
   2.64299989      -1.74541938E-07
   2.64400005      -1.77825399E-07
   2.64499998      -1.81157418E-07
   2.64599991      -1.84537697E-07
   2.64700007      -1.87965924E-07
   2.64800000      -1.91441742E-07
   2.64899993      -1.94964869E-07
   2.65000010      -1.98535005E-07
   2.65100002      -2.02151853E-07
   2.65199995      -2.05815155E-07
   2.65300012      -2.09524714E-07
   2.65400004      -2.13280344E-07
   2.65499997      -2.17081919E-07
   2.65599990      -2.20929422E-07
   2.65700006      -2.24822926E-07
   2.65799999      -2.28762659E-07
   2.65899992      -2.32749017E-07
   2.66000009      -2.36782597E-07
   2.66100001      -2.40864267E-07
   2.66199994      -2.44995221E-07
   2.66300011      -2.49176793E-07
   2.66400003      -2.53410775E-07
   2.66499996      -2.57699213E-07
   2.66599989      -2.62044495E-07
   2.66700006      -2.66449263E-07
   2.66799998      -2.70916445E-07
   2.66899991      -2.75449338E-07
   2.67000008      -2.80051381E-07
   2.67100000      -2.84726269E-07
   2.67199993      -2.89477953E-07
   2.67300010      -2.94310439E-07
   2.67400002      -2.99227992E-07
   2.67499995      -3.04234959E-07
   2.67600012      -3.09335718E-07
   2.67700005      -3.14534816E-07
   2.67799997      -3.19836744E-07
   2.67899990      -3.25245963E-07
   2.68000007      -3.30766909E-07
   2.68099999      -3.36403900E-07
   2.68199992      -3.42161059E-07
   2.68300009      -3.48042391E-07
   2.68400002      -3.54051679E-07
   2.68499994      -3.60192445E-07
   2.68600011      -3.66467930E-07
   2.68700004      -3.72881175E-07
   2.68799996      -3.79434994E-07
   2.68899989      -3.86131887E-07
   2.69000006      -3.92974329E-07
   2.69099998      -3.99964449E-07
   2.69199991      -4.07104295E-07
   2.69300008      -4.14395856E-07
   2.69400001      -4.21840952E-07
   2.69499993      -4.29441513E-07
   2.69600010      -4.37199304E-07
   2.69700003      -4.45116228E-07
   2.69799995      -4.53194133E-07
   2.69899988      -4.61435036E-07
   2.70000005      -4.69840955E-07
   2.70099998      -4.78413995E-07
   2.70199990      -4.87156342E-07
   2.70300007      -4.96070356E-07
   2.70400000      -5.05158482E-07
   2.70499992      -5.14423334E-07
   2.70600009      -5.23867698E-07
   2.70700002      -5.33494358E-07
   2.70799994      -5.43306555E-07
   2.70900011      -5.53307302E-07
   2.71000004      -5.63500066E-07
   2.71099997      -5.73888144E-07
   2.71199989      -5.84474947E-07
   2.71300006      -5.95264055E-07
   2.71399999      -6.06258823E-07
   2.71499991      -6.17462774E-07
   2.71600008      -6.28879491E-07
   2.71700001      -6.40512269E-07
   2.71799994      -6.52364747E-07
   2.71900010      -6.64440392E-07
   2.72000003      -6.76742673E-07
   2.72099996      -6.89275055E-07
   2.72199988      -7.02041234E-07
   2.72300005      -7.15044735E-07
   2.72399998      -7.28289194E-07
   2.72499990      -7.41778422E-07
   2.72600007      -7.55516169E-07
   2.72700000      -7.69506357E-07
   2.72799993      -7.83752910E-07
   2.72900009      -7.98259691E-07
   2.73000002      -8.13030624E-07
   2.73099995      -8.28069574E-07
   2.73200011      -8.43380519E-07
   2.73300004      -8.58967041E-07
   2.73399997      -8.74832949E-07
   2.73499990      -8.90981596E-07
   2.73600006      -9.07416336E-07
   2.73699999      -9.24140409E-07
   2.73799992      -9.41156713E-07
   2.73900008      -9.58468036E-07
   2.74000001      -9.76076876E-07
   2.74099994      -9.93985623E-07
   2.74200010      -1.01219621E-06
   2.74300003      -1.03071022E-06
   2.74399996      -1.04952937E-06
   2.74499989      -1.06865434E-06
   2.74600005      -1.08808615E-06
   2.74699998      -1.10782548E-06
   2.74799991      -1.12787291E-06
   2.74900007      -1.14822831E-06
   2.75000000      -1.16889214E-06
   2.75099993      -1.18986441E-06
   2.75200009      -1.21114522E-06
   2.75300002      -1.23273480E-06
   2.75399995      -1.25463339E-06
   2.75500011      -1.27684143E-06
   2.75600004      -1.29935916E-06
   2.75699997      -1.32218725E-06
   2.75799990      -1.34532615E-06
   2.75900006      -1.36877645E-06
   2.75999999      -1.39253848E-06
   2.76099992      -1.41661224E-06
   2.76200008      -1.44099806E-06
   2.76300001      -1.46569562E-06
   2.76399994      -1.49070468E-06
   2.76500010      -1.51602455E-06
   2.76600003      -1.54165446E-06
   2.76699996      -1.56759336E-06
   2.76799989      -1.59384012E-06
   2.76900005      -1.62039362E-06
   2.76999998      -1.64725270E-06
   2.77099991      -1.67441601E-06
   2.77200007      -1.70188196E-06
   2.77300000      -1.72964951E-06
   2.77399993      -1.75771675E-06
   2.77500010      -1.78608241E-06
   2.77600002      -1.81474536E-06
   2.77699995      -1.84370379E-06
   2.77800012      -1.87295666E-06
   2.77900004      -1.90250250E-06
   2.77999997      -1.93234064E-06
   2.78099990      -1.96246992E-06
   2.78200006      -1.99289025E-06
   2.78299999      -2.02360093E-06
   2.78399992      -2.05460265E-06
   2.78500009      -2.08589563E-06
   2.78600001      -2.11748079E-06
   2.78699994      -2.14935949E-06
   2.78800011      -2.18153286E-06
   2.78900003      -2.21400273E-06
   2.78999996      -2.24677069E-06
   2.79099989      -2.27983833E-06
   2.79200006      -2.31320746E-06
   2.79299998      -2.34687991E-06
   2.79399991      -2.38085727E-06
   2.79500008      -2.41514158E-06
   2.79600000      -2.44973398E-06
   2.79699993      -2.48463698E-06
   2.79800010      -2.51985261E-06
   2.79900002      -2.55538362E-06
   2.79999995      -2.59123271E-06
   2.80100012      -2.62740332E-06
   2.80200005      -2.66389884E-06
   2.80299997      -2.70072383E-06
   2.80399990      -2.73788214E-06
   2.80500007      -2.77537879E-06
   2.80599999      -2.81321877E-06
   2.80699992      -2.85140686E-06
   2.80800009      -2.88994852E-06
   2.80900002      -2.92884806E-06
   2.80999994      -2.96811095E-06
   2.81100011      -3.00774104E-06
   2.81200004      -3.04774267E-06
   2.81299996      -3.08812014E-06
   2.81399989      -3.12887710E-06
   2.81500006      -3.17001718E-06
   2.81599998      -3.21154403E-06
   2.81699991      -3.25346105E-06
   2.81800008      -3.29577119E-06
   2.81900001      -3.33847834E-06
   2.81999993      -3.38158475E-06
   2.82100010      -3.42509384E-06
   2.82200003      -3.46900742E-06
   2.82299995      -3.51332801E-06
   2.82399988      -3.55805832E-06
   2.82500005      -3.60320064E-06
   2.82599998      -3.64875768E-06
   2.82699990      -3.69473264E-06
   2.82800007      -3.74112915E-06
   2.82900000      -3.78795062E-06
   2.82999992      -3.83520182E-06
   2.83100009      -3.88288754E-06
   2.83200002      -3.93101345E-06
   2.83299994      -3.97958593E-06
   2.83400011      -4.02861133E-06
   2.83500004      -4.07809739E-06
   2.83599997      -4.12805139E-06
   2.83699989      -4.17848241E-06
   2.83800006      -4.22939729E-06
   2.83899999      -4.28080466E-06
   2.83999991      -4.33271134E-06
   2.84100008      -4.38512507E-06
   2.84200001      -4.43805175E-06
   2.84299994      -4.49149820E-06
   2.84400010      -4.54546853E-06
   2.84500003      -4.59996909E-06
   2.84599996      -4.65500261E-06
   2.84699988      -4.71057456E-06
   2.84800005      -4.76668811E-06
   2.84899998      -4.82334917E-06
   2.84999990      -4.88056048E-06
   2.85100007      -4.93832749E-06
   2.85200000      -4.99665475E-06
   2.85299993      -5.05554681E-06
   2.85400009      -5.11500912E-06
   2.85500002      -5.17504623E-06
   2.85599995      -5.23566405E-06