   24.9500008      -15.1203032    
   24.8999996      -15.0389519    
   24.8500004      -14.9577646    
   24.7999992      -14.8766785    
   24.7500000      -14.7956266    
   24.7000008      -14.7145605    
   24.6499996      -14.6334686    
   24.6000004      -14.5523758    
   24.5499992      -14.4713297    
   24.5000000      -14.3903856    
   24.4500008      -14.3095798    
   24.3999996      -14.2289133    
   24.3500004      -14.1483469    
   24.2999992      -14.0678120    
   24.2500000      -13.9872341    
   24.2000008      -13.9065533    
   24.1499996      -13.8257513    
   24.1000004      -13.7448463    
   24.0499992      -13.6638899    
   24.0000000      -13.5829449    
   23.9500008      -13.5020590    
   23.8999996      -13.4212437    
   23.8500004      -13.3404636    
   23.7999992      -13.2596540    
   23.7500000      -13.1787357    
   23.7000008      -13.0976410    
   23.6499996      -13.0163412    
   23.6000004      -12.9348516    
   23.5499992      -12.8532257    
   23.5000000      -12.7715330    
   23.4500008      -12.6898279    
   23.3999996      -12.6081324    
   23.3500004      -12.5264196    
   23.2999992      -12.4446192    
   23.2500000      -12.3626375    
   23.2000008      -12.2803860    
   23.1499996      -12.1978073    
   23.1000004      -12.1148872    
   23.0499992      -12.0316553    
   23.0000000      -11.9481630    
   22.9500008      -11.8644686    
   22.8999996      -11.7806082    
   22.8500004      -11.6965818    
   22.7999992      -11.6123533    
   22.7500000      -11.5278692    
   22.7000008      -11.4430685    
   22.6499996      -11.3579102    
   22.6000004      -11.2723780    
   22.5499992      -11.1864815    
   22.5000000      -11.1002464    
   22.4500008      -11.0136976    
   22.3999996      -10.9268484    
   22.3500004      -10.8396912    
   22.2999992      -10.7522001    
   22.2500000      -10.6643448    
   22.2000008      -10.5761003    
   22.1499996      -10.4874544    
   22.1000004      -10.3984137    
   22.0499992      -10.3089895    
   22.0000000      -10.2191925    
   21.9500008      -10.1290178    
   21.8999996      -10.0384436    
   21.8500004      -9.94743347    
   21.7999992      -9.85594940    
   21.7500000      -9.76396561    
   21.7000008      -9.67148209    
   21.6499996      -9.57852840    
   21.6000004      -9.48515034    
   21.5499992      -9.39140129    
   21.5000000      -9.29731655    
   21.4500008      -9.20290184    
   21.3999996      -9.10813427    
   21.3500004      -9.01296616    
   21.2999992      -8.91734695    
   21.2500000      -8.82124615    
   21.2000008      -8.72466183    
   21.1499996      -8.62763119    
   21.1000004      -8.53021526    
   21.0499992      -8.43248177    
   21.0000000      -8.33448124    
   20.9500008      -8.23623085    
   20.8999996      -8.13770962    
   20.8500004      -8.03887081    
   20.7999992      -7.93966007    
   20.7500000      -7.84004736    
   20.7000008      -7.74003315    
   20.6499996      -7.63966227    
   20.6000004      -7.53901196    
   20.5499992      -7.43817043    
   20.5000000      -7.33721542    
   20.4500008      -7.23619080    
   20.3999996      -7.13510275    
   20.3500004      -7.03392506    
   20.2999992      -6.93261814    
   20.2500000      -6.83115149    
   20.2000008      -6.72952175    
   20.1499996      -6.62775946    
   20.1000004      -6.52592516    
   20.0499992      -6.42409706    
   20.0000000      -6.32234573    
   19.9500008      -6.22072458    
   19.8999996      -6.11926031    
   19.8500004      -6.01795530    
   19.7999992      -5.91680288    
   19.7500000      -5.81580162    
   19.7000008      -5.71496534    
   19.6499996      -5.61433268    
   19.6000004      -5.51395893    
   19.5499992      -5.41390562    
   19.5000000      -5.31422758    
   19.4500008      -5.21496248    
   19.3999996      -5.11612844    
   19.3500004      -5.01773071    
   19.2999992      -4.91977072    
   19.2500000      -4.82226133    
   19.2000008      -4.72523260    
   19.1499996      -4.62873363    
   19.1000004      -4.53282785    
   19.0499992      -4.43757820    
   19.0000000      -4.34303951    
   18.9500008      -4.24924612    
   18.8999996      -4.15621519    
   18.8500004      -4.06394911    
   18.7999992      -3.97244859    
   18.7500000      -3.88172054    
   18.7000008      -3.79178739    
   18.6499996      -3.70268893    
   18.6000004      -3.61447597    
   18.5499992      -3.52720261    
   18.5000000      -3.44091654    
   18.4500008      -3.35565138    
   18.3999996      -3.27142572    
   18.3500004      -3.18824577    
   18.2999992      -3.10611153    
   18.2500000      -3.02502370    
   18.2000008      -2.94498944    
   18.1499996      -2.86602473    
   18.1000004      -2.78815246    
   18.0499992      -2.71140003    
   18.0000000      -2.63579512    
   17.9500008      -2.56136394    
   17.8999996      -2.48812938    
   17.8500004      -2.41611171    
   17.7999992      -2.34532857    
   17.7500000      -2.27579546    
   17.7000008      -2.20752549    
   17.6499996      -2.14052629    
   17.6000004      -2.07479930    
   17.5499992      -2.01033974    
   17.5000000      -1.94713795    
   17.4500008      -1.88518393    
   17.3999996      -1.82447100    
   17.3500004      -1.76499891    
   17.2999992      -1.70677531    
   17.2500000      -1.64981329    
   17.2000008      -1.59412682    
   17.1499996      -1.53972507    
   17.1000004      -1.48660779    
   17.0499992      -1.43476427    
   17.0000000      -1.38417530    
   16.9500008      -1.33481836    
   16.8999996      -1.28667486    
   16.8500004      -1.23973489    
   16.7999992      -1.19399965    
   16.7500000      -1.14947879    
   16.7000008      -1.10618436    
   16.6499996      -1.06412327    
   16.6000004      -1.02329051    
   16.5499992     -0.983664513    
   16.5000000     -0.945209742    
   16.4500008     -0.907881379    
   16.3999996     -0.871634305    
   16.3500004     -0.836431742    
   16.2999992     -0.802251160    
   16.2500000     -0.769085944    
   16.2000008     -0.736942172    
   16.1499996     -0.705831707    
   16.1000004     -0.675763726    
   16.0499992     -0.646737456    
   16.0000000     -0.618737936    
   15.9499998     -0.591735959    
   15.8999996     -0.565692127    
   15.8500004     -0.540563345    
   15.8000002     -0.516309381    
   15.7500000     -0.492898047    
   15.6999998     -0.470307738    
   15.6499996     -0.448527038    
   15.6000004     -0.427550852    
   15.5500002     -0.407376170    
   15.5000000     -0.387997091    
   15.4499998     -0.369401425    
   15.3999996     -0.351569235    
   15.3500004     -0.334473342    
   15.3000002     -0.318081319    
   15.2500000     -0.302358836    
   15.1999998     -0.287272811    
   15.1499996     -0.272794276    
   15.1000004     -0.258900195    
   15.0500002     -0.245573968    
   15.0000000     -0.232804820    
   14.9499998     -0.220585972    
   14.8999996     -0.208912298    
   14.8500004     -0.197777674    
   14.8000002     -0.187172592    
   14.7500000     -0.177082539    
   14.6999998     -0.167487562    
   14.6499996     -0.158362910    
   14.6000004     -0.149680734    
   14.5500002     -0.141412437    
   14.5000000     -0.133531272    
   14.4499998     -0.126014218    
   14.3999996     -0.118843324    
   14.3500004     -0.112005755    
   14.3000002     -0.105492897    
   14.2500000      -9.92987975E-02
   14.1999998      -9.34183598E-02
   14.1499996      -8.78456905E-02
   14.1000004      -8.25729519E-02
   14.0500002      -7.75899068E-02
   14.0000000      -7.28840604E-02
   13.9499998      -6.84412643E-02
   13.8999996      -6.42465577E-02
   13.8500004      -6.02851063E-02
   13.8000002      -5.65429181E-02
   13.7500000      -5.30074388E-02
   13.6999998      -4.96677831E-02
   13.6499996      -4.65147644E-02
   13.6000004      -4.35405858E-02
   13.5500002      -4.07383107E-02
   13.5000000      -3.81011926E-02
   13.4499998      -3.56220044E-02
   13.3999996      -3.32924984E-02
   13.3500004      -3.11032142E-02
   13.3000002      -2.90437322E-02
   13.2500000      -2.71033775E-02
   13.1999998      -2.52722241E-02
   13.1499996      -2.35421360E-02
   13.1000004      -2.19075736E-02
   13.0500002      -2.03658249E-02
   13.0000000      -1.89165566E-02
   12.9499998      -1.75607502E-02
   12.8999996      -1.62992291E-02
   12.8500004      -1.51312165E-02
   12.8000002      -1.40532786E-02
   12.7500000      -1.30590163E-02
   12.6999998      -1.21395485E-02
   12.6499996      -1.12847164E-02
   12.6000004      -1.04846321E-02
   12.5500002      -9.73118097E-03
   12.5000000      -9.01902094E-03
   12.4499998      -8.34585261E-03
   12.3999996      -7.71189481E-03
   12.3500004      -7.11875735E-03
   12.3000002      -6.56807236E-03
   12.2500000      -6.06026268E-03
   12.1999998      -5.59381908E-03
   12.1499996      -5.16524678E-03
   12.1000004      -4.76966007E-03
   12.0500002      -4.40180209E-03
   12.0000000      -4.05715918E-03
   11.9499998      -3.73282610E-03
   11.8999996      -3.42785451E-03
   11.8500004      -3.14300787E-03
   11.8000002      -2.87999958E-03
   11.7500000      -2.64046039E-03
   11.6999998      -2.42495583E-03
   11.6499996      -2.23234086E-03
   11.6000004      -2.05965806E-03
   11.5500002      -1.90259831E-03
   11.5000000      -1.75639719E-03
   11.4499998      -1.61690207E-03
   11.3999996      -1.48150232E-03
   11.3500004      -1.34965265E-03
   11.3000002      -1.22283562E-03
   11.2500000      -1.10397360E-03
   11.1999998      -9.96452291E-04
   11.1499996      -9.03027249E-04
   11.1000004      -8.24916584E-04
   11.0500002      -7.61321804E-04
   11.0000000      -7.09500164E-04
   10.9499998      -6.65352854E-04
   10.8999996      -6.24355511E-04
   10.8500004      -5.82569861E-04
   10.8000002      -5.37469226E-04
   10.7500000      -4.88373451E-04
   10.6999998      -4.36410279E-04
   10.6499996      -3.84050596E-04
   10.6000004      -3.34373763E-04
   10.5500002      -2.90272757E-04
   10.5000000      -2.53798411E-04
   10.4499998      -2.25779266E-04
   10.3999996      -2.05760851E-04
   10.3500004      -1.92222127E-04
   10.3000002      -1.82967240E-04
   10.2500000      -1.75572728E-04
   10.1999998      -1.67791717E-04
   10.1499996      -1.57857503E-04
   10.1000004      -1.44672420E-04
   10.0500002      -1.27895793E-04
   10.0000000      -1.07950931E-04
   9.94999981      -8.59606371E-05
   9.89999962      -6.36060577E-05
   9.85000038      -4.28992607E-05
   9.80000019      -2.58721921E-05
   9.75000000      -1.42131139E-05
   9.69999981      -8.91337368E-06
   9.64999962      -1.00077768E-05
   9.60000038      -1.64875564E-05
   9.55000019      -2.64313530E-05
   9.50000000      -3.73453731E-05
   9.44999981      -4.66445745E-05
   9.39999962      -5.21635739E-05
   9.35000038      -5.25738578E-05
   9.30000019      -4.76082059E-05
   9.25000000      -3.80463680E-05
   9.19999981      -2.54802126E-05
   9.14999962      -1.19314664E-05
   9.10000038       5.75739307E-07
   9.05000019       1.03880802E-05
   9.00000000       1.64719004E-05
   8.94999981       1.85098597E-05
   8.89999962       1.68567894E-05
   8.85000038       1.23910932E-05
   8.80000019       6.30516843E-06
   8.75000000      -1.27011191E-07
   8.69999981      -5.77583387E-06
   8.64999962      -9.85037877E-06
   8.60000038      -1.20336317E-05
   8.55000019      -1.25273655E-05
   8.50000000      -1.19795204E-05
   8.44999981      -1.12865246E-05
   8.39999962      -1.12984872E-05
   8.35000038      -1.24968383E-05
   8.30000019      -1.47446117E-05
   8.25000000      -1.72110449E-05
   8.19999981      -1.85344525E-05
   8.14999962      -1.72152086E-05
   8.10000038      -1.21450785E-05
   8.05000019      -3.11101553E-06
   8.00000000       8.90878709E-06
   7.94999981       2.17952547E-05
   7.90000010       3.27226153E-05
   7.84999990       3.88848639E-05
   7.80000019       3.83103979E-05
   7.75000000       3.05084250E-05
   7.69999981       1.67237249E-05
   7.65000010      -3.09290556E-07
   7.59999990      -1.70614239E-05
   7.55000019      -3.01483287E-05
   7.50000000      -3.72220711E-05
   7.44999981      -3.75319541E-05
   7.40000010      -3.19812243E-05
   7.34999990      -2.26783559E-05
   7.30000019      -1.21558269E-05
   7.25000000      -2.54169663E-06
   7.19999981       5.02200237E-06
   7.15000010       1.05194786E-05
   7.09999990       1.47367173E-05
   7.05000019       1.86281195E-05
   7.00000000       2.26488755E-05
   6.94999981       2.63402926E-05
   6.90000010       2.83556110E-05
   6.84999990       2.69389275E-05
   6.80000019       2.06859240E-05
   6.75000000       9.29328417E-06
   6.69999981      -6.00797739E-06
   6.65000010      -2.25349959E-05
   6.59999990      -3.67666107E-05
   6.55000019      -4.53077701E-05
   6.50000000      -4.58906543E-05
   6.44999981      -3.80763158E-05
   6.40000010      -2.34184990E-05
   6.34999990      -5.03380079E-06
   6.30000019       1.32778532E-05
   6.25000000       2.80721706E-05
   6.19999981       3.71270798E-05
   6.15000010       3.98785742E-05
   6.09999990       3.73252042E-05
   6.05000019       3.14824938E-05
   6.00000000       2.46092641E-05
   5.94999981       1.84811270E-05
   5.90000010       1.39404528E-05
   5.84999990       1.08323475E-05
   5.80000019       8.29200235E-06
   5.75000000       5.23405106E-06
   5.69999981       8.46514070E-07
   5.65000010      -5.08072299E-06
   5.59999990      -1.20803688E-05
   5.55000019      -1.91726594E-05
   5.50000000      -2.51798665E-05
   5.44999981      -2.90671269E-05
   5.40000010      -3.02030294E-05
   5.34999990      -2.84822654E-05
   5.30000019      -2.43080904E-05
   5.25000000      -1.84714554E-05
   5.19999981      -1.19766910E-05
   5.15000010      -5.85481848E-06
   5.09999990      -9.89122213E-07
   5.05000019       2.03272521E-06
   5.00000000       3.02407557E-06
   4.94999981       2.23791994E-06
   4.90000010       3.11631254E-07
   4.84999990      -1.89496711E-06
   4.80000019      -3.54765598E-06
   4.75000000      -4.10988241E-06
   4.69999981      -3.54708936E-06
   4.65000010      -2.37371478E-06
   4.59999990      -1.49591597E-06
   4.55000019      -1.87651472E-06
   4.50000000      -4.12632880E-06
   4.44999981      -8.17408636E-06
   4.40000010      -1.31593761E-05
   4.34999990      -1.76241265E-05
   4.30000019      -1.99686710E-05
   4.25000000      -1.90292831E-05
   4.19999981      -1.45703534E-05
   4.15000010      -7.49684432E-06
   4.09999990       3.17351095E-07
   4.05000019       6.55224221E-06
   4.00000000       9.15033979E-06
   3.95000005       6.97065389E-06
   3.90000010       1.62109870E-07
   3.84999990      -9.86915438E-06
   3.79999995      -2.08762631E-05
   3.75000000      -3.04126061E-05
   3.70000005      -3.64667576E-05
   3.65000010      -3.78823315E-05
   3.59999990      -3.44566724E-05
   3.54999995      -2.67507367E-05
   3.50000000      -1.57551840E-05
   3.45000005      -2.59617468E-06
   3.40000010       1.15873136E-05
   3.34999990       2.55778705E-05
   3.29999995       3.79317135E-05
   3.25000000       4.69222505E-05
   3.20000005       5.07239856E-05
   3.15000010       4.78709917E-05
   3.09999990       3.78685181E-05
   3.04999995       2.17111065E-05
   3.00000000       2.03287209E-06
   2.95000005      -1.72875116E-05
   2.90000010      -3.20475956E-05
   2.84999990      -3.89252345E-05
   2.79999995      -3.65675696E-05
   2.75000000      -2.61521527E-05
   2.70000005      -1.11570071E-05
   2.65000010       3.65379674E-06
   2.59999990       1.37301022E-05
   2.54999995       1.62203141E-05
   2.50000000       1.09146531E-05
   2.45000005       2.92758642E-07
   2.40000010      -1.13653587E-05
   2.34999990      -1.95049743E-05
   2.29999995      -2.09191148E-05
   2.25000000      -1.48836089E-05
   2.20000005      -3.39246230E-06
   2.15000010       9.59140380E-06
   2.09999990       1.95945267E-05
   2.04999995       2.32662242E-05
   2.00000000       1.95928569E-05
   1.95000005       1.02587637E-05
   1.89999998      -9.63450134E-07
   1.85000002      -9.55778887E-06
   1.79999995      -1.18523621E-05
   1.75000000      -6.28773023E-06
   1.70000005       6.05917103E-06
   1.64999998       2.18389323E-05
   1.60000002       3.65094857E-05
   1.54999995       4.57289134E-05
   1.50000000       4.65895828E-05
   1.45000005       3.83257175E-05
   1.39999998       2.23466686E-05
   1.35000002       1.68903068E-06
   1.29999995      -1.98499565E-05
   1.25000000      -3.85912172E-05
   1.20000005      -5.16343971E-05
   1.14999998      -5.72120625E-05
   1.10000002      -5.47831878E-05
   1.04999995      -4.49775835E-05
   1.00000000      -2.94828969E-05
  0.949999988      -1.08889471E-05
  0.899999976       7.57162616E-06
  0.850000024       2.24665109E-05
  0.800000012       3.08091221E-05
  0.750000000       3.08052295E-05
  0.699999988       2.24826581E-05
  0.649999976       7.94043899E-06
  0.600000024      -8.97643804E-06
  0.550000012      -2.35923944E-05
  0.500000000      -3.16970363E-05
  0.449999988      -3.08305353E-05
  0.400000006      -2.11158967E-05
  0.349999994      -5.31091928E-06
  0.300000012       1.19933320E-05
  0.250000000       2.57970951E-05
  0.200000003       3.22724300E-05
  0.150000006       2.99593630E-05
  0.100000001       2.01632902E-05
   5.00000007E-02   6.42231316E-06
   0.00000000      -6.75220963E-06
  -5.00000007E-02  -1.54006102E-05
 -0.100000001      -1.73613153E-05
 -0.150000006      -1.28174297E-05
 -0.200000003      -3.99891269E-06
 -0.250000000       5.78527079E-06
 -0.300000012       1.33753310E-05
 -0.349999994       1.67767885E-05
 -0.400000006       1.56183596E-05
 -0.449999988       1.09588391E-05
 -0.500000000       4.61937088E-06
 -0.550000012      -1.61095443E-06
 -0.600000024      -6.54128780E-06
 -0.649999976      -9.71256122E-06
 -0.699999988      -1.11256468E-05
 -0.750000000      -1.07940677E-05
 -0.800000012      -8.42997270E-06
 -0.850000024      -3.49055563E-06
 -0.899999976       4.39133055E-06
 -0.949999988       1.47968394E-05
  -1.00000000       2.60765901E-05
  -1.04999995       3.53950782E-05
  -1.10000002       3.93976661E-05
  -1.14999998       3.53508294E-05
  -1.20000005       2.23523311E-05
  -1.25000000       2.10216831E-06
  -1.29999995      -2.11701445E-05
  -1.35000002      -4.17343799E-05
  -1.39999998      -5.40843830E-05
  -1.45000005      -5.47929267E-05
  -1.50000000      -4.38217285E-05
  -1.54999995      -2.47576281E-05
  -1.60000002      -3.80548522E-06
  -1.64999998       1.21857192E-05
  -1.70000005       1.80208644E-05
  -1.75000000       1.19919523E-05
  -1.79999995      -3.40726160E-06
  -1.85000002      -2.21675255E-05
  -1.89999998      -3.66566055E-05
  -1.95000005      -4.01109901E-05
  -2.00000000      -2.89162381E-05
  -2.04999995      -3.93717619E-06
  -2.09999990       2.95258815E-05
  -2.15000010       6.31367948E-05
  -2.20000005       8.78434003E-05
  -2.25000000       9.64222781E-05
  -2.29999995       8.55206890E-05
  -2.34999990       5.66503732E-05
  -2.40000010       1.59071260E-05
  -2.45000005      -2.74642134E-05
  -2.50000000      -6.32651063E-05
  -2.54999995      -8.27599870E-05
  -2.59999990      -8.07680262E-05
  -2.65000010      -5.69853146E-05
  -2.70000005      -1.62601264E-05
  -2.75000000       3.22599808E-05
  -2.79999995       7.69871913E-05
  -2.84999990       1.06439598E-04
  -2.90000010       1.11983456E-04
  -2.95000005       9.01676831E-05
  -3.00000000       4.40415533E-05
  -3.04999995      -1.70090661E-05
  -3.09999990      -7.90675185E-05
  -3.15000010      -1.26876053E-04
  -3.20000005      -1.47720828E-04
  -3.25000000      -1.35019407E-04
  -3.29999995      -9.05651614E-05
  -3.34999990      -2.46475265E-05
  -3.40000010       4.61906347E-05
  -3.45000005       1.03313701E-04
  -3.50000000       1.31011475E-04
  -3.54999995       1.20974262E-04
  -3.59999990       7.48937964E-05
  -3.65000010       4.34633375E-06
  -3.70000005      -7.21123215E-05
  -3.75000000      -1.33885129E-04
  -3.79999995      -1.63932607E-04
  -3.84999990      -1.53447123E-04
  -3.90000010      -1.04280931E-04
  -3.95000005      -2.84606631E-05
  -4.00000000       5.50387012E-05
  -4.05000019       1.25320759E-04
  -4.09999990       1.64989397E-04
  -4.15000010       1.64512690E-04
  -4.19999981       1.24436017E-04
  -4.25000000       5.49822216E-05
  -4.30000019      -2.67220857E-05
  -4.34999990      -1.00980411E-04
  -4.40000010      -1.50292995E-04
  -4.44999981      -1.63419434E-04
  -4.50000000      -1.37850599E-04
  -4.55000019      -8.02167415E-05
  -4.59999990      -4.62195567E-06
  -4.65000010       7.06822029E-05
  -4.69999981       1.27552543E-04
  -4.75000000       1.52226217E-04
  -4.80000019       1.38670846E-04
  -4.84999990       9.02205211E-05
  -4.90000010       1.90216506E-05
  -4.94999981      -5.67257521E-05
  -5.00000000      -1.17212614E-04
  -5.05000019      -1.46145176E-04
  -5.09999990      -1.35248003E-04
  -5.15000010      -8.68673233E-05
  -5.19999981      -1.37928555E-05
  -5.25000000       6.38726196E-05
  -5.30000019       1.24114085E-04
  -5.34999990       1.49254061E-04
  -5.40000010       1.31255583E-04
  -5.44999981       7.44360805E-05
  -5.50000000      -5.36556672E-06
  -5.55000019      -8.50889992E-05
  -5.59999990      -1.41061042E-04
  -5.65000010      -1.55986447E-04
  -5.69999981      -1.24203652E-04
  -5.75000000      -5.35650506E-05
  -5.80000019       3.66870627E-05
  -5.84999990       1.21446443E-04
  -5.90000010       1.77013178E-04
  -5.94999981       1.87916463E-04
  -6.00000000       1.51255750E-04
  -6.05000019       7.73193169E-05
  -6.09999990      -1.35984910E-05
  -6.15000010      -9.71124609E-05
  -6.19999981      -1.51556029E-04
  -6.25000000      -1.63683784E-04
  -6.30000019      -1.31723151E-04
  -6.34999990      -6.51236041E-05
  -6.40000010       1.86394464E-05
  -6.44999981       9.90483677E-05
  -6.50000000       1.57792834E-04
  -6.55000019       1.82893375E-04
  -6.59999990       1.70821178E-04
  -6.65000010       1.26411003E-04
  -6.69999981       6.09617455E-05
  -6.75000000      -1.07303622E-05
  -6.80000019      -7.36044894E-05
  -6.84999990      -1.15202391E-04
  -6.90000010      -1.27797277E-04
  -6.94999981      -1.09629298E-04
  -7.00000000      -6.52004965E-05
  -7.05000019      -4.59915100E-06
  -7.09999990       5.81690838E-05
  -7.15000010       1.07776861E-04
  -7.19999981       1.30820161E-04
  -7.25000000       1.19147364E-04
  -7.30000019       7.24630663E-05
  -7.34999990      -6.53353823E-07
  -7.40000010      -8.39286877E-05
  -7.44999981      -1.56850510E-04
  -7.50000000      -1.99766946E-04
  -7.55000019      -1.99365866E-04
  -7.59999990      -1.52944398E-04
  -7.65000010      -7.00387973E-05
  -7.69999981       2.93556204E-05
  -7.75000000       1.19752309E-04
  -7.80000019       1.77082969E-04
  -7.84999990       1.85593395E-04
  -7.90000010       1.42640652E-04
  -7.94999981       5.98405459E-05
  -8.00000000      -3.99234741E-05
  -8.05000019      -1.28854255E-04
  -8.10000038      -1.82119853E-04
  -8.14999962      -1.84913952E-04
  -8.19999981      -1.36581919E-04
  -8.25000000      -5.05933385E-05
  -8.30000019       4.95765962E-05
  -8.35000038       1.37345283E-04
  -8.39999962       1.90570892E-04
  -8.44999981       1.97492220E-04
  -8.50000000       1.59384290E-04
  -8.55000019       8.93367105E-05
  -8.60000038       7.77488094E-06
  -8.64999962      -6.37103149E-05
  -8.69999981      -1.08271401E-04
  -8.75000000      -1.17757721E-04
  -8.80000019      -9.37900186E-05
  -8.85000038      -4.60176634E-05
  -8.89999962       1.15288476E-05
  -8.94999981       6.46311310E-05
  -9.00000000       1.02325634E-04
  -9.05000019       1.18782067E-04
  -9.10000038       1.13475129E-04
  -9.14999962       9.00908635E-05
  -9.19999981       5.48970820E-05
  -9.25000000       1.52365574E-05
  -9.30000019      -2.15337550E-05
  -9.35000038      -4.87307807E-05
  -9.39999962      -6.09798772E-05
  -9.44999981      -5.50846125E-05
  -9.50000000      -3.11341937E-05
  -9.55000019       6.53311463E-06
  -9.60000038       4.91483697E-05
  -9.64999962       8.46947441E-05
  -9.69999981       1.00619669E-04
  -9.75000000       8.75886253E-05
  -9.80000019       4.31685221E-05
  -9.85000038      -2.59655553E-05
  -9.89999962      -1.04467705E-04
  -9.94999981      -1.71794789E-04
  -10.0000000      -2.08023819E-04
