   24.9500008       1.03584766    
   24.8999996       1.01555002    
   24.8500004      0.995141268    
   24.7999992      0.974635184    
   24.7500000      0.954046905    
   24.7000008      0.933389902    
   24.6499996      0.912675202    
   24.6000004      0.891911685    
   24.5499992      0.871106207    
   24.5000000      0.850263059    
   24.4500008      0.829381168    
   24.3999996      0.808450162    
   24.3500004      0.787446618    
   24.2999992      0.766332746    
   24.2500000      0.745058477    
   24.2000008      0.723568320    
   24.1499996      0.701812088    
   24.1000004      0.679755807    
   24.0499992      0.657391310    
   24.0000000      0.634740055    
   23.9500008      0.611848891    
   23.8999996      0.588778734    
   23.8500004      0.565588474    
   23.7999992      0.542318046    
   23.7500000      0.518976808    
   23.7000008      0.495537221    
   23.6499996      0.471941322    
   23.6000004      0.448113024    
   23.5499992      0.423975646    
   23.5000000      0.399470031    
   23.4500008      0.374566078    
   23.3999996      0.349266291    
   23.3500004      0.323600590    
   23.2999992      0.297614038    
   23.2500000      0.271352798    
   23.2000008      0.244851068    
   23.1499996      0.218124017    
   23.1000004      0.191168010    
   23.0499992      0.163965866    
   23.0000000      0.136496052    
   22.9500008      0.108740650    
   22.8999996       8.06900561E-02
   22.8500004       5.23434505E-02
   22.7999992       2.37047393E-02
   22.7500000      -5.22321183E-03
   22.7000008      -3.44431140E-02
   22.6499996      -6.39642999E-02
   22.6000004      -9.38000828E-02
   22.5499992     -0.123962313    
   22.5000000     -0.154455975    
   22.4500008     -0.185274616    
   22.3999996     -0.216400027    
   22.3500004     -0.247804806    
   22.2999992     -0.279457897    
   22.2500000     -0.311329752    
   22.2000008     -0.343396485    
   22.1499996     -0.375640839    
   22.1000004     -0.408050567    
   22.0499992     -0.440615654    
   22.0000000     -0.473326206    
   21.9500008     -0.506172299    
   21.8999996     -0.539145768    
   21.8500004     -0.572242737    
   21.7999992     -0.605465353    
   21.7500000     -0.638820231    
   21.7000008     -0.672313571    
   21.6499996     -0.705943167    
   21.6000004     -0.739691079    
   21.5499992     -0.773518384    
   21.5000000     -0.807366192    
   21.4500008     -0.841162443    
   21.3999996     -0.874834299    
   21.3500004     -0.908321083    
   21.2999992     -0.941585064    
   21.2500000     -0.974615037    
   21.2000008      -1.00742149    
   21.1499996      -1.04002559    
   21.1000004      -1.07244432    
   21.0499992      -1.10467696    
   21.0000000      -1.13669908    
   20.9500008      -1.16846371    
   20.8999996      -1.19991076    
   20.8500004      -1.23098087    
   20.7999992      -1.26162720    
   20.7500000      -1.29182208    
   20.7000008      -1.32155502    
   20.6499996      -1.35082197    
   20.6000004      -1.37961185    
   20.5499992      -1.40789413    
   20.5000000      -1.43561244    
   20.4500008      -1.46268904    
   20.3999996      -1.48903894    
   20.3500004      -1.51458883    
   20.2999992      -1.53929555    
   20.2500000      -1.56315780    
   20.2000008      -1.58621454    
   20.1499996      -1.60853064    
   20.1000004      -1.63017356    
   20.0499992      -1.65118659    
   20.0000000      -1.67156804    
   19.9500008      -1.69126081    
   19.8999996      -1.71015871    
   19.8500004      -1.72812557    
   19.7999992      -1.74502504    
   19.7500000      -1.76075041    
   19.7000008      -1.77524698    
   19.6499996      -1.78852212    
   19.6000004      -1.80063999    
   19.5499992      -1.81169975    
   19.5000000      -1.82180846    
   19.4500008      -1.83105087    
   19.3999996      -1.83946681    
   19.3500004      -1.84704089    
   19.2999992      -1.85370684    
   19.2500000      -1.85936403    
   19.2000008      -1.86390221    
   19.1499996      -1.86722875    
   19.1000004      -1.86928952    
   19.0499992      -1.87008059    
   19.0000000      -1.86964595    
   18.9500008      -1.86806500    
   18.8999996      -1.86543143    
   18.8500004      -1.86183047    
   18.7999992      -1.85731959    
   18.7500000      -1.85191846    
   18.7000008      -1.84561050    
   18.6499996      -1.83835340    
   18.6000004      -1.83009756    
   18.5499992      -1.82080555    
   18.5000000      -1.81046653    
   18.4500008      -1.79910266    
   18.3999996      -1.78676522    
   18.3500004      -1.77352190    
   18.2999992      -1.75943911    
   18.2500000      -1.74456704    
   18.2000008      -1.72892964    
   18.1499996      -1.71252584    
   18.1000004      -1.69533932    
   18.0499992      -1.67735541    
   18.0000000      -1.65857804    
   17.9500008      -1.63904262    
   17.8999996      -1.61881638    
   17.8500004      -1.59799004    
   17.7999992      -1.57665896    
   17.7500000      -1.55490088    
   17.7000008      -1.53275812    
   17.6499996      -1.51022995    
   17.6000004      -1.48727739    
   17.5499992      -1.46384239    
   17.5000000      -1.43987274    
   17.4500008      -1.41534829    
   17.3999996      -1.39029872    
   17.3500004      -1.36480701    
   17.2999992      -1.33899784    
   17.2500000      -1.31301296    
   17.2000008      -1.28698015    
   17.1499996      -1.26098716    
   17.1000004      -1.23506474    
   17.0499992      -1.20918703    
   17.0000000      -1.18328786    
   16.9500008      -1.15728736    
   16.8999996      -1.13112247    
   16.8500004      -1.10477138    
   16.7999992      -1.07826579    
   16.7500000      -1.05168712    
   16.7000008      -1.02514863    
   16.6499996     -0.998770058    
   16.6000004     -0.972650766    
   16.5499992     -0.946851015    
   16.5000000     -0.921385348    
   16.4500008     -0.896229565    
   16.3999996     -0.871338487    
   16.3500004     -0.846667707    
   16.2999992     -0.822193444    
   16.2500000     -0.797923148    
   16.2000008     -0.773895323    
   16.1499996     -0.750168085    
   16.1000004     -0.726802170    
   16.0499992     -0.703842819    
   16.0000000     -0.681308270    
   15.9499998     -0.659186661    
   15.8999996     -0.637444556    
   15.8500004     -0.616042495    
   15.8000002     -0.594952762    
   15.7500000     -0.574174345    
   15.6999998     -0.553738832    
   15.6499996     -0.533705771    
   15.6000004     -0.514147878    
   15.5500002     -0.495131552    
   15.5000000     -0.476696879    
   15.4499998     -0.458845079    
   15.3999996     -0.441536188    
   15.3500004     -0.424698979    
   15.3000002     -0.408250004    
   15.2500000     -0.392117113    
   15.1999998     -0.376260370    
   15.1499996     -0.360684246    
   15.1000004     -0.345437616    
   15.0500002     -0.330601156    
   15.0000000     -0.316265553    
   14.9499998     -0.302506417    
   14.8999996     -0.289363205    
   14.8500004     -0.276827455    
   14.8000002     -0.264844239    
   14.7500000     -0.253325999    
   14.6999998     -0.242174774    
   14.6499996     -0.231306553    
   14.6000004     -0.220671192    
   14.5500002     -0.210261971    
   14.5000000     -0.200112790    
   14.4499998     -0.190284148    
   14.3999996     -0.180842102    
   14.3500004     -0.171836853    
   14.3000002     -0.163287073    
   14.2500000     -0.155174255    
   14.1999998     -0.147448689    
   14.1499996     -0.140044600    
   14.1000004     -0.132899672    
   14.0500002     -0.125972927    
   14.0000000     -0.119255148    
   13.9499998     -0.112769060    
   13.8999996     -0.106559083    
   13.8500004     -0.100674167    
   13.8000002      -9.51489508E-02
   13.7500000      -8.99892822E-02
   13.6999998      -8.51665959E-02
   13.6499996      -8.06230009E-02
   13.6000004      -7.62856007E-02
   13.5500002      -7.20857382E-02
   13.5000000      -6.79773316E-02
   13.4499998      -6.39487058E-02
   13.3999996      -6.00243770E-02
   13.3500004      -5.62560074E-02
   13.3000002      -5.27053848E-02
   13.2500000      -4.94242609E-02
   13.1999998      -4.64371406E-02
   13.1499996      -4.37319875E-02
   13.1000004      -4.12615761E-02
   13.0500002      -3.89550477E-02
   13.0000000      -3.67361642E-02
   12.9499998      -3.45429592E-02
   12.8999996      -3.23431306E-02
   12.8500004      -3.01407725E-02
   12.8000002      -2.79728249E-02
   12.7500000      -2.58964803E-02
   12.6999998      -2.39714347E-02
   12.6499996      -2.22422369E-02
   12.6000004      -2.07257066E-02
   12.5500002      -1.94067992E-02
   12.5000000      -1.82436667E-02
   12.4499998      -1.71799734E-02
   12.3999996      -1.61605161E-02
   12.3500004      -1.51454387E-02
   12.3000002      -1.41189741E-02
   12.2500000      -1.30905099E-02
   12.1999998      -1.20881479E-02
   12.1499996      -1.11471619E-02
   12.1000004      -1.02971559E-02
   12.0500002      -9.55193210E-03
   12.0000000      -8.90502334E-03
   11.9499998      -8.33199453E-03
   11.8999996      -7.79847940E-03
   11.8500004      -7.27121299E-03
   11.8000002      -6.72845962E-03
   11.7500000      -6.16659783E-03
   11.6999998      -5.60084404E-03
   11.6499996      -5.05999196E-03
   11.6000004      -4.57686232E-03
   11.5500002      -4.17745207E-03
   11.5000000      -3.87211819E-03
   11.4499998      -3.65147274E-03
   11.3999996      -3.48823331E-03
   11.3500004      -3.34446132E-03
   11.3000002      -3.18204961E-03
   11.2500000      -2.97335489E-03
   11.1999998      -2.70886626E-03
   11.1499996      -2.39967811E-03
   11.1000004      -2.07407400E-03
   11.0500002      -1.76923547E-03
   11.0000000      -1.52047549E-03
   10.9499998      -1.35110167E-03
   10.8999996      -1.26578216E-03
   10.8500004      -1.24925422E-03
   10.8000002      -1.27066672E-03
   10.7500000      -1.29222777E-03
   10.6999998      -1.27962686E-03
   10.6499996      -1.21124380E-03
   10.6000004      -1.08356192E-03
   10.5500002      -9.11348092E-04
   10.5000000      -7.22698460E-04
   10.4499998      -5.50517230E-04
   10.3999996      -4.22979036E-04
   10.3500004      -3.55739292E-04
   10.3000002      -3.48059984E-04
   10.2500000      -3.83806677E-04
   10.1999998      -4.36816481E-04
   10.1499996      -4.78879549E-04
   10.1000004      -4.87882702E-04
   10.0500002      -4.53723507E-04
   10.0000000      -3.80374579E-04
   9.94999981      -2.83699919E-04
   9.89999962      -1.85912955E-04
   9.85000038      -1.08527398E-04
   9.80000019      -6.60033184E-05
   9.75000000      -6.19563580E-05
   9.69999981      -8.89088260E-05
   9.64999962      -1.31420384E-04
   9.60000038      -1.71408363E-04
   9.55000019      -1.93867279E-04
   9.50000000      -1.91188563E-04
   9.44999981      -1.64834462E-04
   9.39999962      -1.24029379E-04
   9.35000038      -8.20916612E-05
   9.30000019      -5.17303633E-05
   9.25000000      -4.08726410E-05
   9.19999981      -5.03163501E-05
   9.14999962      -7.38395902E-05
   9.10000038      -1.00578785E-04
   9.05000019      -1.18779179E-04
   9.00000000      -1.19644312E-04
   8.94999981      -1.00059828E-04
   8.89999962      -6.33984309E-05
   8.85000038      -1.82641434E-05
   8.80000019       2.43154609E-05
   8.75000000       5.42925445E-05
   8.69999981       6.55215845E-05
   8.64999962       5.73444777E-05
   8.60000038       3.44469336E-05
   8.55000019       5.14385374E-06
   8.50000000      -2.12887971E-05
   8.44999981      -3.73790899E-05
   8.39999962      -3.94989074E-05
   8.35000038      -2.86299510E-05
   8.30000019      -9.72037560E-06
   8.25000000       1.00844691E-05
   8.19999981       2.37485456E-05
   8.14999962       2.64867995E-05
   8.10000038       1.71332376E-05
   8.05000019      -1.61595733E-06
   8.00000000      -2.40982754E-05
   7.94999981      -4.34140129E-05
   7.90000010      -5.34660612E-05
   7.84999990      -5.07246659E-05
   7.80000019      -3.52303032E-05
   7.75000000      -1.05740282E-05
   7.69999981       1.71168012E-05
   7.65000010       4.08866290E-05
   7.59999990       5.48680109E-05
   7.55000019       5.58707688E-05
   7.50000000       4.42062992E-05
   7.44999981       2.35267271E-05
   7.40000010      -2.63571422E-07
   7.34999990      -2.07054472E-05
   7.30000019      -3.26018308E-05
   7.25000000      -3.34328288E-05
   7.19999981      -2.39667406E-05
   7.15000010      -7.90056129E-06
   7.09999990       9.35084427E-06
   7.05000019       2.23469815E-05
   7.00000000       2.72840844E-05
   6.94999981       2.31278500E-05
   6.90000010       1.18785611E-05
   6.84999990      -2.10568601E-06
   6.80000019      -1.35159289E-05
   6.75000000      -1.77964466E-05
   6.69999981      -1.26233590E-05
   6.65000010       1.29606963E-06
   6.59999990       2.03514210E-05
   6.55000019       3.90527894E-05
   6.50000000       5.16494292E-05
   6.44999981       5.38645290E-05
   6.40000010       4.42314486E-05
   6.34999990       2.46324726E-05
   6.30000019      -1.27930733E-07
   6.25000000      -2.36052001E-05
   6.19999981      -3.94967792E-05
   6.15000010      -4.34256763E-05
   6.09999990      -3.42242165E-05
   6.05000019      -1.43530415E-05
   6.00000000       1.06729231E-05
   5.94999981       3.37084930E-05
   5.90000010       4.78767543E-05
   5.84999990       4.84349330E-05
   5.80000019       3.41048653E-05
   5.75000000       7.50440904E-06
   5.69999981      -2.54457500E-05
   5.65000010      -5.69920085E-05
   5.59999990      -7.95099331E-05
   5.55000019      -8.74390826E-05
   5.50000000      -7.86762612E-05
   5.44999981      -5.50586010E-05
   5.40000010      -2.18168425E-05
   5.34999990       1.38375117E-05
   5.30000019       4.45896439E-05
   5.25000000       6.48381756E-05
   5.19999981       7.19539603E-05
   5.15000010       6.66559208E-05
   5.09999990       5.24438146E-05
   5.05000019       3.43061802E-05
   5.00000000       1.71269385E-05
   4.94999981       4.28446583E-06
   4.90000010      -3.14778322E-06
   4.84999990      -6.39960399E-06
   4.80000019      -8.26555515E-06
   4.75000000      -1.19242586E-05
   4.69999981      -1.97327063E-05
   4.65000010      -3.23909953E-05
   4.59999990      -4.87209545E-05
   4.55000019      -6.60781734E-05
   4.50000000      -8.12026192E-05
   4.44999981      -9.11826428E-05
   4.40000010      -9.42021506E-05
   4.34999990      -8.98534199E-05
   4.30000019      -7.89798505E-05
   4.25000000      -6.31891889E-05
   4.19999981      -4.42816927E-05
   4.15000010      -2.38337234E-05
   4.09999990      -3.07345749E-06
   4.05000019       1.69681007E-05
   4.00000000       3.51836134E-05
   3.95000005       5.02047551E-05
   3.90000010       6.04739325E-05
   3.84999990       6.46116314E-05
   3.79999995       6.19618950E-05
   3.75000000       5.30823600E-05
   3.70000005       3.99246164E-05
   3.65000010       2.55423056E-05
   3.59999990       1.33379426E-05
   3.54999995       6.05006517E-06
   3.50000000       4.81306915E-06
   3.45000005       8.63671175E-06
   3.40000010       1.45369731E-05
   3.34999990       1.83404009E-05
   3.29999995       1.59530791E-05
   3.25000000       4.71580688E-06
   3.20000005      -1.55792295E-05
   3.15000010      -4.23404126E-05
   3.09999990      -7.06242281E-05
   3.04999995      -9.42638653E-05
   3.00000000      -1.07365318E-04
   2.95000005      -1.05763378E-04
   2.90000010      -8.80629668E-05
   2.84999990      -5.60296830E-05
   2.79999995      -1.42802101E-05
   2.75000000       3.06036491E-05
   2.70000005       7.13055706E-05
   2.65000010       1.01089936E-04
   2.59999990       1.14978502E-04
   2.54999995       1.10630586E-04
   2.50000000       8.88274808E-05
   2.45000005       5.34968894E-05
   2.40000010       1.12336584E-05
   2.34999990      -2.96946819E-05
   2.29999995      -6.07976253E-05
   2.25000000      -7.50902982E-05
   2.20000005      -6.87884167E-05
   2.15000010      -4.25553480E-05
   2.09999990      -1.88257809E-06
   2.04999995       4.36807168E-05
   2.00000000       8.24628733E-05
   1.95000005       1.03438470E-04
   1.89999998       9.91841443E-05
   1.85000002       6.82068567E-05
   1.79999995       1.58948533E-05
   1.75000000      -4.63440920E-05
   1.70000005      -1.03696671E-04
   1.64999998      -1.41713856E-04
   1.60000002      -1.50234453E-04
   1.54999995      -1.26331201E-04
   1.50000000      -7.53615095E-05
   1.45000005      -9.71819281E-06
   1.39999998       5.44534232E-05
   1.35000002       1.01683247E-04
   1.29999995       1.21483630E-04
   1.25000000       1.11269648E-04
   1.20000005       7.70134575E-05
   1.14999998       3.14164572E-05
   1.10000002      -9.87709609E-06
   1.04999995      -3.29159302E-05
   1.00000000      -2.95658429E-05
  0.949999988       8.00118016E-08
  0.899999976       4.76890164E-05
  0.850000024       9.90463595E-05
  0.800000012       1.38064963E-04
  0.750000000       1.51274871E-04
  0.699999988       1.31522684E-04
  0.649999976       7.98880283E-05
  0.600000024       5.37180586E-06
  0.550000012      -7.74476430E-05
  0.500000000      -1.52054359E-04
  0.449999988      -2.03904230E-04
  0.400000006      -2.23598981E-04
  0.349999994      -2.08614088E-04
  0.300000012      -1.63321529E-04
  0.250000000      -9.75081930E-05
  0.200000003      -2.39268957E-05
  0.150000006       4.44441794E-05
  0.100000001       9.68198947E-05
   5.00000007E-02   1.26291052E-04
   0.00000000       1.30608067E-04
  -5.00000007E-02   1.12113099E-04
 -0.100000001       7.69923790E-05
 -0.150000006       3.40525694E-05
 -0.200000003      -6.79742243E-06
 -0.250000000      -3.62070095E-05
 -0.300000012      -4.70300693E-05
 -0.349999994      -3.57554745E-05
 -0.400000006      -3.46567685E-06
 -0.449999988       4.39513060E-05
 -0.500000000       9.65436266E-05
 -0.550000012       1.42028366E-04
 -0.600000024       1.68304672E-04
 -0.649999976       1.66276746E-04
 -0.699999988       1.32333618E-04
 -0.750000000       6.98048098E-05
 -0.800000012      -1.11201161E-05
 -0.850000024      -9.51763577E-05
 -0.899999976      -1.65240825E-04
 -0.949999988      -2.06291414E-04
  -1.00000000      -2.09149453E-04
  -1.04999995      -1.73016713E-04
  -1.10000002      -1.06059393E-04
  -1.14999998      -2.37543918E-05
  -1.20000005       5.47122654E-05
  -1.25000000       1.11171110E-04
  -1.29999995       1.33147900E-04
  -1.35000002       1.17268319E-04
  -1.39999998       7.04278573E-05
  -1.45000005       8.30188583E-06
  -1.50000000      -4.85511118E-05
  -1.54999995      -8.00892667E-05
  -1.60000002      -7.23362464E-05
  -1.64999998      -2.16061599E-05
  -1.70000005       6.38042475E-05
  -1.75000000       1.65061923E-04
  -1.79999995       2.57182342E-04
  -1.85000002       3.15346551E-04
  -1.89999998       3.21553845E-04
  -1.95000005       2.69817596E-04
  -2.00000000       1.68395272E-04
  -2.04999995       3.82650869E-05
  -2.09999990      -9.19438316E-05
  -2.15000010      -1.93354368E-04
  -2.20000005      -2.44630792E-04
  -2.25000000      -2.37980334E-04
  -2.29999995      -1.81576528E-04
  -2.34999990      -9.75399307E-05
  -2.40000010      -1.58501061E-05
  -2.45000005       3.42359017E-05
  -2.50000000       3.28760725E-05
  -2.54999995      -2.40809150E-05
  -2.59999990      -1.23166858E-04
  -2.65000010      -2.36441236E-04
  -2.70000005      -3.28973663E-04
  -2.75000000      -3.68616806E-04
  -2.79999995      -3.35289456E-04
  -2.84999990      -2.27068827E-04
  -2.90000010      -6.12843869E-05
  -2.95000005       1.29742883E-04
  -3.00000000       3.07094917E-04
  -3.04999995       4.35349677E-04
  -3.09999990       4.91461484E-04
  -3.15000010       4.69930557E-04
  -3.20000005       3.82929778E-04
  -3.25000000       2.55608262E-04
  -3.29999995       1.18228352E-04
  -3.34999990      -2.33307287E-06
  -3.40000010      -8.91418531E-05
  -3.45000005      -1.38017655E-04
  -3.50000000      -1.56103299E-04
  -3.54999995      -1.57096496E-04
  -3.59999990      -1.55069196E-04
  -3.65000010      -1.59119125E-04
  -3.70000005      -1.70636151E-04
  -3.75000000      -1.83917451E-04
  -3.79999995      -1.89615181E-04
  -3.84999990      -1.79496856E-04
  -3.90000010      -1.50585169E-04
  -3.95000005      -1.07050808E-04
  -4.00000000      -5.91270691E-05
  -4.05000019      -1.94611603E-05
  -4.09999990       1.70343696E-06
  -4.15000010       6.63997071E-07
  -4.19999981      -1.79070121E-05
  -4.25000000      -4.22244884E-05
  -4.30000019      -5.74153491E-05
  -4.34999990      -5.09440943E-05
  -4.40000010      -1.75215137E-05
  -4.44999981       3.83050065E-05
  -4.50000000       1.02924991E-04
  -4.55000019       1.57706047E-04
  -4.59999990       1.85067387E-04
  -4.65000010       1.74603134E-04
  -4.69999981       1.27177191E-04
  -4.75000000       5.55078659E-05
  -4.80000019      -1.91344279E-05
  -4.84999990      -7.32352855E-05
  -4.90000010      -8.84613619E-05
  -4.94999981      -5.78827567E-05
  -5.00000000       1.10355377E-05
  -5.05000019       9.77682939E-05
  -5.09999990       1.74189176E-04
  -5.15000010       2.12682702E-04
  -5.19999981       1.94579698E-04
  -5.25000000       1.16402618E-04
  -5.30000019      -8.03357761E-06
  -5.34999990      -1.50471533E-04
  -5.40000010      -2.75401428E-04
  -5.44999981      -3.49698967E-04
  -5.50000000      -3.52045696E-04
  -5.55000019      -2.79433181E-04
  -5.59999990      -1.48787905E-04
  -5.65000010       6.92760023E-06
  -5.69999981       1.47240033E-04
  -5.75000000       2.35079555E-04
  -5.80000019       2.47097429E-04
  -5.84999990       1.80472693E-04
  -5.90000010       5.41926347E-05
  -5.94999981      -9.57080265E-05
  -6.00000000      -2.25773518E-04
  -6.05000019      -2.97035091E-04
  -6.09999990      -2.85907532E-04
  -6.15000010      -1.90992228E-04
  -6.19999981      -3.38044665E-05
  -6.25000000       1.46864782E-04
  -6.30000019       3.05435271E-04
  -6.34999990       4.01954050E-04
  -6.40000010       4.12949710E-04
  -6.44999981       3.37661273E-04
  -6.50000000       1.97900386E-04
  -6.55000019       3.16371188E-05
  -6.59999990      -1.17796881E-04
  -6.65000010      -2.13750522E-04
  -6.69999981      -2.36087377E-04
  -6.75000000      -1.86059086E-04
  -6.80000019      -8.49625649E-05
  -6.84999990       3.28356728E-05
  -6.90000010       1.30299653E-04
  -6.94999981       1.78409697E-04
  -7.00000000       1.64023528E-04
  -7.05000019       9.27526416E-05
  -7.09999990      -1.37440647E-05
  -7.15000010      -1.24966798E-04
  -7.19999981      -2.10911254E-04
  -7.25000000      -2.50645535E-04
  -7.30000019      -2.37616929E-04
  -7.34999990      -1.80301897E-04
  -7.40000010      -9.83084392E-05
  -7.44999981      -1.54305671E-05
  -7.50000000       4.79828705E-05
  -7.55000019       8.08978075E-05
  -7.59999990       8.39425484E-05
  -7.65000010       6.76894706E-05
  -7.69999981       4.76721398E-05
  -7.75000000       3.79830017E-05
  -7.80000019       4.57141359E-05
  -7.84999990       6.81737220E-05
  -7.90000010       9.38488593E-05
  -7.94999981       1.06806590E-04
  -8.00000000       9.30419774E-05
  -8.05000019       4.65780540E-05
  -8.10000038      -2.68685671E-05
  -8.14999962      -1.10110814E-04
  -8.19999981      -1.78821123E-04
  -8.25000000      -2.08827812E-04
  -8.30000019      -1.84188932E-04
  -8.35000038      -1.03461702E-04
  -8.39999962       1.80022507E-05
  -8.44999981       1.50783148E-04
  -8.50000000       2.58682732E-04
  -8.55000019       3.08680843E-04
  -8.60000038       2.80743581E-04
  -8.64999962       1.74568020E-04
  -8.69999981       1.11280933E-05
  -8.75000000      -1.71667023E-04
  -8.80000019      -3.28198803E-04
  -8.85000038      -4.16812138E-04
  -8.89999962      -4.10755456E-04
  -8.94999981      -3.05382651E-04
  -9.00000000      -1.19653145E-04
  -9.05000019       1.08441083E-04
  -9.10000038       3.31219169E-04
  -9.14999962       5.02861221E-04
  -9.19999981       5.90097625E-04
  -9.25000000       5.79342770E-04
  -9.30000019       4.78667469E-04
  -9.35000038       3.14463716E-04
  -9.39999962       1.24036349E-04
  -9.44999981      -5.37095621E-05
  -9.50000000      -1.87051148E-04
  -9.55000019      -2.57661188E-04
  -9.60000038      -2.63083115E-04
  -9.64999962      -2.15342079E-04
  -9.69999981      -1.36488976E-04
  -9.75000000      -5.24623138E-05
  -9.80000019       1.31734387E-05
  -9.85000038       4.42485325E-05
  -9.89999962       3.48445574E-05
  -9.94999981      -1.03898483E-05
  -10.0000000      -7.83055948E-05
