   24.9500008       7.87155294    
   24.8999996       7.83803225    
   24.8500004       7.80466557    
   24.7999992       7.77144623    
   24.7500000       7.73837566    
   24.7000008       7.70546865    
   24.6499996       7.67275286    
   24.6000004       7.64027452    
   24.5499992       7.60808706    
   24.5000000       7.57624531    
   24.4500008       7.54479170    
   24.3999996       7.51374865    
   24.3500004       7.48310995    
   24.2999992       7.45284224    
   24.2500000       7.42289495    
   24.2000008       7.39321089    
   24.1499996       7.36374378    
   24.1000004       7.33447027    
   24.0499992       7.30539465    
   24.0000000       7.27655077    
   23.9500008       7.24799442    
   23.8999996       7.21979284    
   23.8500004       7.19201088    
   23.7999992       7.16470385    
   23.7500000       7.13790464    
   23.7000008       7.11162472    
   23.6499996       7.08585167    
   23.6000004       7.06055403    
   23.5499992       7.03568602    
   23.5000000       7.01119566    
   23.4500008       6.98702955    
   23.3999996       6.96314621    
   23.3500004       6.93951988    
   23.2999992       6.91614676    
   23.2500000       6.89305067    
   23.2000008       6.87027884    
   23.1499996       6.84789753    
   23.1000004       6.82597589    
   23.0499992       6.80457497    
   23.0000000       6.78373241    
   22.9500008       6.76345253    
   22.8999996       6.74370670    
   22.8500004       6.72443295    
   22.7999992       6.70555305    
   22.7500000       6.68698692    
   22.7000008       6.66866779    
   22.6499996       6.65055561    
   22.6000004       6.63264036    
   22.5499992       6.61494112    
   22.5000000       6.59749699    
   22.4500008       6.58035231    
   22.3999996       6.56354618    
   22.3500004       6.54709959    
   22.2999992       6.53101397    
   22.2500000       6.51526833    
   22.2000008       6.49982786    
   22.1499996       6.48464727    
   22.1000004       6.46967936    
   22.0499992       6.45488119    
   22.0000000       6.44021559    
   21.9500008       6.42565060    
   21.8999996       6.41115999    
   21.8500004       6.39671755    
   21.7999992       6.38229847    
   21.7500000       6.36787748    
   21.7000008       6.35342979    
   21.6499996       6.33893061    
   21.6000004       6.32435846    
   21.5499992       6.30969858    
   21.5000000       6.29493856    
   21.4500008       6.28006983    
   21.3999996       6.26508474    
   21.3500004       6.24997139    
   21.2999992       6.23470879    
   21.2500000       6.21926308    
   21.2000008       6.20358515    
   21.1499996       6.18760872    
   21.1000004       6.17125702    
   21.0499992       6.15444994    
   21.0000000       6.13711023    
   20.9500008       6.11918211    
   20.8999996       6.10063124    
   20.8500004       6.08145285    
   20.7999992       6.06167030    
   20.7500000       6.04132080    
   20.7000008       6.02044439    
   20.6499996       5.99906778    
   20.6000004       5.97718811    
   20.5499992       5.95476532    
   20.5000000       5.93172264    
   20.4500008       5.90795565    
   20.3999996       5.88334990    
   20.3500004       5.85779953    
   20.2999992       5.83122540    
   20.2500000       5.80358839    
   20.2000008       5.77489233    
   20.1499996       5.74517393    
   20.1000004       5.71449327    
   20.0499992       5.68291140    
   20.0000000       5.65047503    
   19.9500008       5.61720324    
   19.8999996       5.58308506    
   19.8500004       5.54807854    
   19.7999992       5.51212168    
   19.7500000       5.47514534    
   19.7000008       5.43708324    
   19.6499996       5.39788437    
   19.6000004       5.35751438    
   19.5499992       5.31596136    
   19.5000000       5.27323198    
   19.4500008       5.22934914    
   19.3999996       5.18434763    
   19.3500004       5.13827229    
   19.2999992       5.09117270    
   19.2500000       5.04310179    
   19.2000008       4.99410772    
   19.1499996       4.94423056    
   19.1000004       4.89349270    
   19.0499992       4.84189606    
   19.0000000       4.78942060    
   18.9500008       4.73602772    
   18.8999996       4.68167210    
   18.8500004       4.62631321    
   18.7999992       4.56993055    
   18.7500000       4.51253366    
   18.7000008       4.45417404    
   18.6499996       4.39493704    
   18.6000004       4.33493519    
   18.5499992       4.27428865    
   18.5000000       4.21310759    
   18.4500008       4.15147209    
   18.3999996       4.08942413    
   18.3500004       4.02696371    
   18.2999992       3.96406054    
   18.2500000       3.90066886    
   18.2000008       3.83674884    
   18.1499996       3.77228618    
   18.1000004       3.70730519    
   18.0499992       3.64187026    
   18.0000000       3.57608056    
   17.9500008       3.51005268    
   17.8999996       3.44390321    
   17.8500004       3.37773037    
   17.7999992       3.31160235    
   17.7500000       3.24555421    
   17.7000008       3.17959332    
   17.6499996       3.11371207    
   17.6000004       3.04790378    
   17.5499992       2.98217583    
   17.5000000       2.91655922    
   17.4500008       2.85110903    
   17.3999996       2.78589749    
   17.3500004       2.72100425    
   17.2999992       2.65650225    
   17.2500000       2.59244895    
   17.2000008       2.52888155    
   17.1499996       2.46581936    
   17.1000004       2.40327168    
   17.0499992       2.34124756    
   17.0000000       2.27976489    
   16.9500008       2.21885705    
   16.8999996       2.15857172    
   16.8500004       2.09896660    
   16.7999992       2.04010010    
   16.7500000       1.98202264    
   16.7000008       1.92476833    
   16.6499996       1.86835492    
   16.6000004       1.81278503    
   16.5499992       1.75805497    
   16.5000000       1.70416284    
   16.4500008       1.65111661    
   16.3999996       1.59893787    
   16.3500004       1.54766059    
   16.2999992       1.49732518    
   16.2500000       1.44797003    
   16.2000008       1.39962316    
   16.1499996       1.35229671    
   16.1000004       1.30598629    
   16.0499992       1.26067507    
   16.0000000       1.21634173    
   15.9499998       1.17296958    
   15.8999996       1.13055384    
   15.8500004       1.08910453    
   15.8000002       1.04864419    
   15.7500000       1.00920153    
   15.6999998      0.970801532    
   15.6499996      0.933456779    
   15.6000004      0.897162020    
   15.5500002      0.861893654    
   15.5000000      0.827615440    
   15.4499998      0.794287562    
   15.3999996      0.761876941    
   15.3500004      0.730366707    
   15.3000002      0.699759245    
   15.2500000      0.670074642    
   15.1999998      0.641342342    
   15.1499996      0.613589883    
   15.1000004      0.586830676    
   15.0500002      0.561055720    
   15.0000000      0.536230624    
   14.9499998      0.512299836    
   14.8999996      0.489196181    
   14.8500004      0.466854513    
   14.8000002      0.445224017    
   14.7500000      0.424277484    
   14.6999998      0.404013872    
   14.6499996      0.384453952    
   14.6000004      0.365630597    
   14.5500002      0.347575754    
   14.5000000      0.330308408    
   14.4499998      0.313826442    
   14.3999996      0.298104078    
   14.3500004      0.283095866    
   14.3000002      0.268745154    
   14.2500000      0.254994720    
   14.1999998      0.241796419    
   14.1499996      0.229117319    
   14.1000004      0.216941133    
   14.0500002      0.205264926    
   14.0000000      0.194092780    
   13.9499998      0.183428645    
   13.8999996      0.173270628    
   13.8500004      0.163608268    
   13.8000002      0.154423177    
   13.7500000      0.145692378    
   13.6999998      0.137392506    
   13.6499996      0.129503444    
   13.6000004      0.122009769    
   13.5500002      0.114899747    
   13.5000000      0.108162269    
   13.4499998      0.101783305    
   13.3999996       9.57432464E-02
   13.3500004       9.00166258E-02
   13.3000002       8.45745802E-02
   13.2500000       7.93894082E-02
   13.1999998       7.44400695E-02
   13.1499996       6.97164387E-02
   13.1000004       6.52208924E-02
   13.0500002       6.09663464E-02
   13.0000000       5.69707491E-02
   12.9499998       5.32495826E-02
   12.8999996       4.98083383E-02
   12.8500004       4.66371961E-02
   12.8000002       4.37096059E-02
   12.7500000       4.09854539E-02
   12.6999998       3.84181142E-02
   12.6499996       3.59636694E-02
   12.6000004       3.35897878E-02
   12.5500002       3.12819146E-02
   12.5000000       2.90449765E-02
   12.4499998       2.69001592E-02
   12.3999996       2.48775259E-02
   12.3500004       2.30065137E-02
   12.3000002       2.13068090E-02
   12.2500000       1.97820552E-02
   12.1999998       1.84180234E-02
   12.1499996       1.71856247E-02
   12.1000004       1.60478354E-02
   12.0500002       1.49685312E-02
   12.0000000       1.39207589E-02
   11.9499998       1.28921969E-02
   11.8999996       1.18864113E-02
   11.8500004       1.09197171E-02
   11.8000002       1.00147026E-02
   11.7500000       9.19239409E-03
   11.6999998       8.46531522E-03
   11.6499996       7.83338118E-03
   11.6000004       7.28366990E-03
   11.5500002       6.79393066E-03
   11.5000000       6.33864244E-03
   11.4499998       5.89571893E-03
   11.3999996       5.45185944E-03
   11.3500004       5.00504905E-03
   11.3000002       4.56361007E-03
   11.2500000       4.14228160E-03
   11.1999998       3.75667680E-03
   11.1499996       3.41787236E-03
   11.1000004       3.12880240E-03
   11.0500002       2.88345991E-03
   11.0000000       2.66902009E-03
   10.9499998       2.47007888E-03
   10.8999996       2.27356958E-03
   10.8500004       2.07275432E-03
   10.8000002       1.86903891E-03
   10.7500000       1.67106523E-03
   10.6999998       1.49142614E-03
   10.6499996       1.34207599E-03
   10.6000004       1.22991728E-03
   10.5500002       1.15396141E-03
   10.5000000       1.10496860E-03
   10.4499998       1.06769195E-03
   10.3999996       1.02505495E-03
   10.3500004       9.63004364E-04
   10.3000002       8.74578836E-04
   10.2500000       7.61974254E-04
   10.1999998       6.35984470E-04
   10.1499996       5.12967759E-04
   10.1000004       4.10211651E-04
   10.0500002       3.41022795E-04
   10.0000000       3.10935109E-04
   9.94999981       3.16096295E-04
   9.89999962       3.44261614E-04
   9.85000038       3.78084253E-04
   9.80000019       3.99755576E-04
   9.75000000       3.95693874E-04
   9.69999981       3.59996688E-04
   9.64999962       2.95750389E-04
   9.60000038       2.13905456E-04
   9.55000019       1.30106695E-04
   9.50000000       6.04122324E-05
   9.44999981       1.71023257E-05
   9.39999962       5.70045268E-06
   9.35000038       2.39421333E-05
   9.30000019       6.28537236E-05
   9.25000000       1.09514011E-04
   9.19999981       1.50634107E-04
   9.14999962       1.75922643E-04
   9.10000038       1.80337302E-04
   9.05000019       1.64704339E-04
   9.00000000       1.34690359E-04
   8.94999981       9.85808874E-05
   8.89999962       6.46215631E-05
   8.85000038       3.87349828E-05
   8.80000019       2.32356488E-05
   8.75000000       1.68065762E-05
   8.69999981       1.55927464E-05
   8.64999962       1.49385896E-05
   8.60000038       1.11441814E-05
   8.55000019       2.67157088E-06
   8.50000000      -9.53548351E-06
   8.44999981      -2.26351021E-05
   8.39999962      -3.30922667E-05
   8.35000038      -3.80401871E-05
   8.30000019      -3.63169638E-05
   8.25000000      -2.88403917E-05
   8.19999981      -1.82301555E-05
   8.14999962      -7.84737585E-06
   8.10000038      -6.10320512E-07
   8.05000019       1.99600208E-06
   8.00000000       3.81944488E-07
   7.94999981      -3.35734694E-06
   7.90000010      -6.23969618E-06
   7.84999990      -5.50263348E-06
   7.80000019       3.54336493E-07
   7.75000000       1.09370167E-05
   7.69999981       2.39406654E-05
   7.65000010       3.57591925E-05
   7.59999990       4.25317121E-05
   7.55000019       4.13063644E-05
   7.50000000       3.09702082E-05
   7.44999981       1.26697805E-05
   7.40000010      -1.03979555E-05
   7.34999990      -3.37588244E-05
   7.30000019      -5.27732846E-05
   7.25000000      -6.37723788E-05
   7.19999981      -6.49079520E-05
   7.15000010      -5.65005103E-05
   7.09999990      -4.08185260E-05
   7.05000019      -2.13849253E-05
   7.00000000      -2.03299896E-06
   6.94999981       1.40107013E-05
   6.90000010       2.47667776E-05
   6.84999990       2.97167244E-05
   6.80000019       2.95785703E-05
   6.75000000       2.57671109E-05
   6.69999981       1.97504651E-05
   6.65000010       1.25325005E-05
   6.59999990       4.43376894E-06
   6.55000019      -4.76853620E-06
   6.50000000      -1.54113877E-05
   6.44999981      -2.74033046E-05
   6.40000010      -3.97911135E-05
   6.34999990      -5.06303877E-05
   6.30000019      -5.72578647E-05
   6.25000000      -5.69299191E-05
   6.19999981      -4.76612586E-05
   6.15000010      -2.90140051E-05
   6.09999990      -2.57800730E-06
   6.05000019       2.80457189E-05
   6.00000000       5.78135259E-05
   5.94999981       8.12575745E-05
   5.90000010       9.37165751E-05
   5.84999990       9.24671767E-05
   5.80000019       7.74548098E-05
   5.75000000       5.14164130E-05
   5.69999981       1.93404576E-05
   5.65000010      -1.26199593E-05
   5.59999990      -3.85215862E-05
   5.55000019      -5.39567445E-05
   5.50000000      -5.70031443E-05
   5.44999981      -4.85648488E-05
   5.40000010      -3.20254694E-05
   5.34999990      -1.23098735E-05
   5.30000019       5.39937810E-06
   5.25000000       1.69582709E-05
   5.19999981       2.02383835E-05
   5.15000010       1.55409834E-05
   5.09999990       5.35726394E-06
   5.05000019      -6.43905196E-06
   5.00000000      -1.57274371E-05
   4.94999981      -1.92792122E-05
   4.90000010      -1.55800171E-05
   4.84999990      -5.11519920E-06
   4.80000019       9.93999311E-06
   4.75000000       2.65039434E-05
   4.69999981       4.15825743E-05
   4.65000010       5.31505721E-05
   4.59999990       6.06397989E-05
   4.55000019       6.48881687E-05
   4.50000000       6.75841075E-05
   4.44999981       7.04132181E-05
   4.40000010       7.42170378E-05
   4.34999990       7.84725926E-05
   4.30000019       8.12941362E-05
   4.25000000       7.99795889E-05
   4.19999981       7.19337477E-05
   4.15000010       5.56639970E-05
   4.09999990       3.15103389E-05
   4.05000019       1.85275621E-06
   4.00000000      -2.92912973E-05
   3.95000005      -5.71668097E-05
   3.90000010      -7.74057189E-05
   3.84999990      -8.70370204E-05
   3.79999995      -8.50932338E-05
   3.75000000      -7.26685321E-05
   3.70000005      -5.24692950E-05
   3.65000010      -2.80556014E-05
   3.59999990      -3.04693390E-06
   3.54999995       1.94665809E-05
   3.50000000       3.71852075E-05
   3.45000005       4.85651872E-05
   3.40000010       5.26451331E-05
   3.34999990       4.89310587E-05
   3.29999995       3.74796218E-05
   3.25000000       1.91861145E-05
   3.20000005      -3.86543707E-06
   3.15000010      -2.82295350E-05
   3.09999990      -4.93358602E-05
   3.04999995      -6.22452426E-05
   3.00000000      -6.28339476E-05
   2.95000005      -4.91086466E-05
   2.90000010      -2.22261842E-05
   2.84999990       1.31963789E-05
   2.79999995       4.97283290E-05
   2.75000000       7.86941819E-05
   2.70000005       9.23223706E-05
   2.65000010       8.59006686E-05
   2.59999990       5.92992510E-05
   2.54999995       1.73562257E-05
   2.50000000      -3.10744726E-05
   2.45000005      -7.52243359E-05
   2.40000010      -1.05119791E-04
   2.34999990      -1.14155511E-04
   2.29999995      -1.00801713E-04
   2.25000000      -6.89501030E-05
   2.20000005      -2.67908727E-05
   2.15000010       1.54618720E-05
   2.09999990       4.83447766E-05
   2.04999995       6.56266420E-05
   2.00000000       6.57959827E-05
   1.95000005       5.21533038E-05
   1.89999998       3.15210527E-05
   1.85000002       1.19893675E-05
   1.79999995       3.91072462E-07
   1.75000000       2.64493707E-07
   1.70000005       1.09008261E-05
   1.64999998       2.77356412E-05
   1.60000002       4.39340765E-05
   1.54999995       5.26603326E-05
   1.50000000       4.93207081E-05
   1.45000005       3.30854673E-05
   1.39999998       7.22136792E-06
   1.35000002      -2.18650766E-05
   1.29999995      -4.65753183E-05
   1.25000000      -6.04525740E-05
   1.20000005      -6.01751344E-05
   1.14999998      -4.65848498E-05
   1.10000002      -2.44226067E-05
   1.04999995      -8.43827820E-07
   1.00000000       1.68300521E-05
  0.949999988       2.34230483E-05
  0.899999976       1.75493333E-05
  0.850000024       2.06194773E-06
  0.800000012      -1.68524275E-05
  0.750000000      -3.16635560E-05
  0.699999988      -3.59544320E-05
  0.649999976      -2.65686267E-05
  0.600000024      -4.75868865E-06
  0.550000012       2.40452246E-05
  0.500000000       5.17926164E-05
  0.449999988       7.02190227E-05
  0.400000006       7.33505731E-05
  0.349999994       5.93211626E-05
  0.300000012       3.09357711E-05
  0.250000000      -5.18368006E-06
  0.200000003      -4.05777573E-05
  0.150000006      -6.74040639E-05
  0.100000001      -8.05760355E-05
   5.00000007E-02  -7.89192127E-05
   0.00000000      -6.50254806E-05
  -5.00000007E-02  -4.39370815E-05
 -0.100000001      -2.11926763E-05
 -0.150000006      -9.75028570E-07
 -0.200000003       1.49596272E-05
 -0.250000000       2.72003490E-05
 -0.300000012       3.75301606E-05
 -0.349999994       4.72184038E-05
 -0.400000006       5.55205988E-05
 -0.449999988       5.91147182E-05
 -0.500000000       5.28772362E-05
 -0.550000012       3.18883795E-05
 -0.600000024      -5.97103644E-06
 -0.649999976      -5.78110667E-05
 -0.699999988      -1.14905684E-04
 -0.750000000      -1.63882360E-04
 -0.800000012      -1.89921804E-04
 -0.850000024      -1.81230964E-04
 -0.899999976      -1.33480775E-04
 -0.949999988      -5.27022567E-05
  -1.00000000       4.45768419E-05
  -1.04999995       1.34439280E-04
  -1.10000002       1.91429834E-04
  -1.14999998       1.95711240E-04
  -1.20000005       1.39498894E-04
  -1.25000000       3.07396258E-05
  -1.29999995      -1.07372332E-04
  -1.35000002      -2.41325310E-04
  -1.39999998      -3.35634628E-04
  -1.45000005      -3.62459454E-04
  -1.50000000      -3.09799245E-04
  -1.54999995      -1.85798039E-04
  -1.60000002      -1.76628128E-05
  -1.64999998       1.54809910E-04
  -1.70000005       2.89528805E-04
  -1.75000000       3.53458367E-04
  -1.79999995       3.31825198E-04
  -1.85000002       2.32476305E-04
  -1.89999998       8.39994609E-05
  -1.95000005      -7.20109456E-05
  -2.00000000      -1.92443928E-04
  -2.04999995      -2.44677532E-04
  -2.09999990      -2.15650871E-04
  -2.15000010      -1.15363415E-04
  -2.20000005       2.62318572E-05
  -2.25000000       1.68038983E-04
  -2.29999995       2.69746233E-04
  -2.34999990       3.03359731E-04
  -2.40000010       2.60956818E-04
  -2.45000005       1.56416630E-04
  -2.50000000       2.07028861E-05
  -2.54999995      -1.07782871E-04
  -2.59999990      -1.94786466E-04
  -2.65000010      -2.20181784E-04
  -2.70000005      -1.83340715E-04
  -2.75000000      -1.02345366E-04
  -2.79999995      -7.42036673E-06
  -2.84999990       6.92415997E-05
  -2.90000010       1.03984508E-04
  -2.95000005       8.91751406E-05
  -3.00000000       3.53040232E-05
  -3.04999995      -3.29388786E-05
  -3.09999990      -8.53252059E-05
  -3.15000010      -9.66727530E-05
  -3.20000005      -5.59018881E-05
  -3.25000000       2.94333695E-05
  -3.29999995       1.34725677E-04
  -3.34999990       2.25657772E-04
  -3.40000010       2.69107288E-04
  -3.45000005       2.44219351E-04
  -3.50000000       1.50106673E-04
  -3.54999995       7.59755494E-06
  -3.59999990      -1.45760816E-04
  -3.65000010      -2.66160292E-04
  -3.70000005      -3.16439458E-04
  -3.75000000      -2.77585379E-04
  -3.79999995      -1.55290109E-04
  -3.84999990       2.05774722E-05
  -3.90000010       2.03644537E-04
  -3.95000005       3.43773805E-04
  -4.00000000       4.01236030E-04
  -4.05000019       3.58188729E-04
  -4.09999990       2.24064774E-04
  -4.15000010       3.32265772E-05
  -4.19999981      -1.64500685E-04
  -4.25000000      -3.17707018E-04
  -4.30000019      -3.87673150E-04
  -4.34999990      -3.58910242E-04
  -4.40000010      -2.42939248E-04
  -4.44999981      -7.42898774E-05
  -4.50000000       9.99972108E-05
  -4.55000019       2.34173247E-04
  -4.59999990       2.96757644E-04
  -4.65000010       2.78866384E-04
  -4.69999981       1.95529981E-04
  -4.75000000       7.97987668E-05
  -4.80000019      -2.83722038E-05
  -4.84999990      -9.49065434E-05
  -4.90000010      -1.02059166E-04
  -4.94999981      -5.33325401E-05
  -5.00000000       2.85681454E-05
  -5.05000019       1.09958906E-04
  -5.09999990       1.57855524E-04
  -5.15000010       1.51310727E-04
  -5.19999981       8.87443894E-05
  -5.25000000      -1.11114423E-05
  -5.30000019      -1.14994553E-04
  -5.34999990      -1.85819910E-04
  -5.40000010      -1.94933091E-04
  -5.44999981      -1.32014102E-04
  -5.50000000      -9.44131170E-06
  -5.55000019       1.40367818E-04
  -5.59999990       2.73947022E-04
  -5.65000010       3.49443435E-04
  -5.69999981       3.39143036E-04
  -5.75000000       2.38071836E-04
  -5.80000019       6.60650330E-05
  -5.84999990      -1.37332230E-04
  -5.90000010      -3.23617249E-04
  -5.94999981      -4.48545004E-04
  -6.00000000      -4.83924057E-04
  -6.05000019      -4.24600032E-04
  -6.09999990      -2.88736686E-04
  -6.15000010      -1.11548834E-04
  -6.19999981       6.54075484E-05
  -6.25000000       2.06018667E-04
  -6.30000019       2.88897252E-04
  -6.34999990       3.11496056E-04
  -6.40000010       2.88082461E-04
  -6.44999981       2.42570619E-04
  -6.50000000       1.98812922E-04
  -6.55000019       1.71700784E-04
  -6.59999990       1.62084310E-04
  -6.65000010       1.57209608E-04
  -6.69999981       1.36506060E-04
  -6.75000000       8.07344986E-05
  -6.80000019      -1.86871148E-05
  -6.84999990      -1.53533227E-04
  -6.90000010      -2.98219384E-04
  -6.94999981      -4.15514951E-04
  -7.00000000      -4.67134145E-04
  -7.05000019      -4.26121464E-04
  -7.09999990      -2.87151895E-04
  -7.15000010      -7.12627298E-05
  -7.19999981       1.76956120E-04
  -7.25000000       3.99481592E-04
  -7.30000019       5.39807254E-04
  -7.34999990       5.58637723E-04
  -7.40000010       4.45791491E-04
  -7.44999981       2.24657255E-04
  -7.50000000      -5.24484130E-05
  -7.55000019      -3.17113416E-04
  -7.59999990      -5.02559589E-04
  -7.65000010      -5.61473367E-04
  -7.69999981      -4.78982169E-04
  -7.75000000      -2.77075131E-04
  -7.80000019      -9.10030030E-06
  -7.84999990       2.54273997E-04
  -7.90000010       4.43853613E-04
  -7.94999981       5.10343700E-04
  -8.00000000       4.37369075E-04
  -8.05000019       2.45555828E-04
  -8.10000038      -1.33761532E-05
  -8.14999962      -2.70798511E-04
  -8.19999981      -4.59666335E-04
  -8.25000000      -5.32218837E-04
  -8.30000019      -4.72095737E-04
  -8.35000038      -2.97711609E-04
  -8.39999962      -5.62060668E-05
  -8.44999981       1.90095510E-04
  -8.50000000       3.80764104E-04
  -8.55000019       4.73083317E-04
  -8.60000038       4.52299020E-04
  -8.64999962       3.33702134E-04
  -8.69999981       1.56331793E-04
  -8.75000000      -2.95358859E-05
  -8.80000019      -1.77253998E-04
  -8.85000038      -2.56629457E-04
  -8.89999962      -2.61059206E-04
  -8.94999981      -2.07128745E-04
  -9.00000000      -1.27127496E-04
  -9.05000019      -5.70618940E-05
  -9.10000038      -2.40668978E-05
  -9.14999962      -3.72403956E-05
  -9.19999981      -8.48152995E-05
  -9.25000000      -1.38574105E-04
  -9.30000019      -1.64105120E-04
  -9.35000038      -1.33603477E-04
  -9.39999962      -3.70253911E-05
  -9.44999981       1.12189417E-04
  -9.50000000       2.78997322E-04
  -9.55000019       4.16046649E-04
  -9.60000038       4.77820693E-04
  -9.64999962       4.35388123E-04
  -9.69999981       2.87116360E-04
  -9.75000000       6.17361075E-05
  -9.80000019      -1.87650556E-04
  -9.85000038      -3.97289725E-04
  -9.89999962      -5.10457379E-04
  -9.94999981      -4.93965519E-04
  -10.0000000      -3.48510599E-04
