   27.9664001       544.564331    
   27.8528004      -1584.77832    
   27.7392006      -5375.14160    
   27.6256008      -6260.00586    
   27.5119991      -5755.92969    
   27.3983994      -5217.72119    
   27.2847996      -5255.58154    
   27.1711998      -2809.80103    
   27.0576000       105.357338    
   26.9440002       1485.71472    
   26.8304005       1841.27283    
   26.7168007       1612.35913    
   26.6032009       2239.82764    
   26.4895992       2076.71411    
   26.3759995       1936.22205    
   26.2623997       2303.37207    
   26.1487999       3055.18896    
   26.0352001       2778.17969    
   25.9216003       2978.24780    
   25.8080006       3198.47485    
   25.6944008       2216.27148    
   25.5807991       26.7113819    
   25.4671993      -990.188171    
   25.3535995      -3020.76221    
   25.2399998      -5311.44531    
   25.1264000      -5445.22070    
   25.0128002      -4123.07471    
   24.8992004      -3494.73999    
   24.7856007      -3306.53955    
   24.6720009      -494.829742    
   24.5583992       1464.19690    
   24.4447994       2321.16357    
   24.3311996       1731.31226    
   24.2175999       2265.86035    
   24.1040001       2063.26221    
   23.9904003       740.865234    
   23.8768005      -774.699829    
   23.7632008      -101.673637    
   23.6495991       1183.26941    
   23.5359993       1342.85132    
   23.4223995       1530.43066    
   23.3087997       1119.14465    
   23.1952000      -1230.99353    
   23.0816002      -6171.64551    
   22.9680004      -12273.3516    
   22.8544006      -21132.4492    
   22.7408009      -31555.8711    
   22.6271992      -44689.6758    
   22.5135994      -60735.5078    
   22.3999996      -80647.2656    
   22.2863998      -106443.469    
   22.1728001      -139071.125    
   22.0592003      -180883.922    
   21.9456005      -232015.375    
   21.8320007      -292923.469    
   21.7183990      -360350.500    
   21.6047993      -432450.281    
   21.4911995      -505124.969    
   21.3775997      -568320.375    
   21.2639999      -615638.125    
   21.1504002      -635376.812    
   21.0368004      -617644.000    
   20.9232006      -548923.188    
   20.8096008      -420996.031    
   20.6959991      -225746.734    
   20.5823994       40509.9648    
   20.4687996       373987.188    
   20.3551998       765580.562    
   20.2416000       1190601.00    
   20.1280003       1622974.75    
   20.0144005       2026172.38    
   19.9008007       2357824.75    
   19.7872009       2574349.50    
   19.6735992       2642144.25    
   19.5599995       2535925.50    
   19.4463997       2240861.50    
   19.3327999       1766511.50    
   19.2192001       1139457.12    
   19.1056004       404580.875    
   18.9920006      -380841.062    
   18.8784008      -1151587.50    
   18.7647991      -1841239.88    
   18.6511993      -2393282.50    
   18.5375996      -2764036.75    
   18.4239998      -2932518.50    
   18.3104000      -2893954.75    
   18.1968002      -2667275.00    
   18.0832005      -2289551.00    
   17.9696007      -1805607.25    
   17.8560009      -1268753.50    
   17.7423992      -729574.500    
   17.6287994      -232765.625    
   17.5151997       190661.422    
   17.4015999       517393.719    
   17.2880001       741936.688    
   17.1744003       868827.062    
   17.0608006       908390.500    
   16.9472008       880048.875    
   16.8335991       802852.375    
   16.7199993       697491.250    
   16.6063995       579577.750    
   16.4927998       462539.688    
   16.3792000       354653.031    
   16.2656002       262361.594    
   16.1520004       188769.453    
   16.0384007       129681.711    
   15.9247999       86139.2656    
   15.8112001       55035.7344    
   15.6976004       35354.5781    
   15.5839996       21123.7676    
   15.4703999       11350.1660    
   15.3568001       6007.69775    
   15.2432003       3916.11475    
   15.1295996       2536.44238    
   15.0159998       39.0870628    
   14.9024000       706.456177    
   14.7888002       275.077942    
   14.6752005      -177.372177    
   14.5615997      -574.741455    
   14.4480000       273.897614    
   14.3344002       148.195999    
   14.2208004       26.6695576    
   14.1071997       96.0233154    
   13.9935999      -411.122437    
   13.8800001       672.651306    
   13.7664003      -552.439514    
   13.6527996      -490.040222    
   13.5391998       176.453094    
   13.4256001       1103.60010    
   13.3120003      -538.625610    
   13.1983995      -348.423157    
   13.0847998       284.437286    
   12.9712000      -249.851257    
   12.8576002       42.9155464    
   12.7440004      -174.715073    
   12.6303997       682.210449    
   12.5167999      -384.185730    
   12.4032001      -113.904007    
   12.2896004      -215.445999    
   12.1759996       840.190979    
   12.0623999      -629.883972    
   11.9488001      -289.133881    
   11.8352003       596.051270    
   11.7215996      -20.8606281    
   11.6079998      -730.626648    
   11.4944000       190.822723    
   11.3808002       966.601624    
   11.2672005      -88.0196838    
   11.1535997      -427.040833    
   11.0400000      -681.129272    
   10.9264002       474.171722    
   10.8128004      -50.8858643    
   10.6991997      -79.9151230    
   10.5855999       334.896088    
   10.4720001       687.630554    
   10.3584003      -929.366333    
   10.2447996      -229.713486    
   10.1311998       530.861511    
   10.0176001      -319.441559    
   9.90400028      -352.331818    
   9.79039955       613.851013    
   9.67679977       631.685120    
   9.56320000      -444.729340    
   9.44960022      -829.620911    
   9.33600044       45.9171791    
   9.22239971       1145.88806    
   9.10879993      -328.019318    
   8.99520016      -1475.16736    
   8.88160038       1013.47455    
   8.76799965       1406.02515    
   8.65439987      -1171.39771    
   8.54080009      -1070.24377    
   8.42720032       981.314087    
   8.31359959       627.278564    
   8.19999981      -805.840149    
   8.08640003      -251.505005    
   7.97279978       281.497559    
   7.85920000       704.267517    
   7.74560022      -440.305328    
   7.63199997      -484.658325    
   7.51840019       167.954758    
   7.40479994       497.673981    
   7.29120016      -152.318954    
   7.17759991      -259.604980    
   7.06400013      -33.6230774    
   6.95039988      -151.219727    
   6.83680010       401.256134    
   6.72319984       80.9131851    
   6.60960007       18.2357502    
   6.49599981      -301.181091    
   6.38240004      -87.3278961    
   6.26879978       195.631836    
   6.15520000       337.532715    
   6.04160023      -503.351929    
   5.92799997      -521.325684    
   5.81440020       789.367859    
   5.70079994       576.935913    
   5.58720016      -512.447327    
   5.47359991      -780.509521    
   5.36000013       292.994385    
   5.24639988       546.671753    
   5.13280010       159.262848    
   5.01919985      -584.490173    
   4.90560007      -308.834595    
   4.79199982       797.433167    
   4.67840004       477.932465    
   4.56479979      -1073.53381    
   4.45120001      -828.504944    
   4.33760023       1377.45874    
   4.22399998       783.816589    
   4.11040020      -1303.13086    
   3.99679995      -701.084656    
   3.88319993       1276.65894    
   3.76959991       622.466064    
   3.65599990      -1116.23511    
   3.54239988      -631.125610    
   3.42880011       717.494507    
   3.31520009       655.352783    
   3.20160007      -537.795227    
   3.08800006      -306.982452    
   2.97440004       457.808319    
   2.86080003      -3.93428397    
   2.74720001      -505.635590    
   2.63360000       134.206482    
   2.51999998       371.731140    
   2.40639997       82.5949936    
   2.29279995       31.0862484    
   2.17919993      -333.130585    
   2.06559992      -471.697906    
   1.95200002       105.730438    
   1.83840001       675.870667    
   1.72479999       174.548706    
   1.61119998      -267.963623    
   1.49759996      -506.872253    
   1.38399994       286.935699    
   1.27040005       344.802826    
   1.15680003      -490.902222    
   1.04320002      -361.650330    
  0.929600000       686.343689    
  0.815999985       764.176147    
  0.702400029      -849.063660    
  0.588800013      -842.574280    
  0.475199997       420.904663    
  0.361600012       1028.96753    
  0.247999996      -354.844910    
  0.134399995      -680.545410    
   2.08000001E-02   419.332672    
  -9.27999988E-02   118.055344    
 -0.206400007      -387.699432    
 -0.319999993       138.956772    
 -0.433600008       290.025208    
 -0.547200024      -231.296585    
 -0.660799980      -25.1498260    
 -0.774399996       180.027618    
 -0.888000011      -121.424614    
  -1.00160003       82.1862106    
  -1.11520004      -185.966873    
  -1.22880006      -167.952957    
  -1.34239995       616.901489    
  -1.45599997      -3.41306829    
  -1.56959999      -707.017395    
  -1.68320000      -186.165131    
  -1.79680002       782.002808    
  -1.91040003       98.1923218    
  -2.02399993      -370.994720    
  -2.13759995      -96.2520752    
  -2.25119996       435.202698    
  -2.36479998       191.746216    
  -2.47839999      -923.419434    
  -2.59200001      -436.424164    
  -2.70560002       817.467773    
  -2.81920004       742.894653    
  -2.93280005      -396.105103    
  -3.04640007      -451.140839    
  -3.16000009       26.9241982    
  -3.27360010       248.718246    
  -3.38720012      -35.8864861    
  -3.50079989      -278.069336    
  -3.61439991      -36.0458794    
  -3.72799993       431.223846    
  -3.84159994      -84.5946655    
  -3.95519996      -280.859406    
  -4.06879997       58.7902107    
  -4.18240023       366.241119    
  -4.29600000       81.8473282    
  -4.40959978      -375.473328    
  -4.52320004      -434.747742    
  -4.63679981       99.2971573    
  -4.75040007       718.811890    
  -4.86399984      -28.3373585    
  -4.97760010      -515.782776    
  -5.09119987       23.7115059    
  -5.20480013       705.601624    
  -5.31839991      -470.127106    
  -5.43200016      -773.700623    
  -5.54559994       468.248779    
  -5.65920019       1062.23730    
  -5.77279997      -550.779053    
  -5.88640022      -935.806763    
  -6.00000000       442.318146    
